                  Welcome to Q-Chem
     A Quantum Leap Into The Future Of Chemistry


 Q-Chem 5.4 (devel), Q-Chem, Inc., Pleasanton, CA (2021)

 E. Epifanovsky,  A. T. B. Gilbert,  Xintian Feng,  Joonho Lee,  Yuezhi Mao,  
 N. Mardirossian,  P. Pokhilko,  A. White,  M. Wormit,  M. P. Coons,  
 A. L. Dempwolff,  Zhengting Gan,  D. Hait,  P. R. Horn,  L. D. Jacobson,  
 I. Kaliman,  J. Kussmann,  A. W. Lange,  Ka Un Lao,  D. S. Levine,  Jie Liu,  
 S. C. McKenzie,  A. F. Morrison,  K. Nanda,  F. Plasser,  D. R. Rehn,  
 M. L. Vidal,  Zhi-Qiang You,  Ying Zhu,  B. Alam,  B. Albrecht,  
 A. Aldossary,  E. Alguire,  J. H. Andersen,  D. Barton,  K. Begam,  A. Behn,  
 Y. A. Bernard,  E. J. Berquist,  H. Burton,  A. Carreras,  K. Carter-Fenk,  
 R. Chakraborty,  A. D. Chien,  K. D. Closser,  V. Cofer-Shabica,  
 S. Dasgupta,  Jia Deng,  M. de Wergifosse,  M. Diedenhofen,  Hainam Do,  
 S. Ehlert,  Po-Tung Fang,  S. Fatehi,  Qingguo Feng,  T. Friedhoff,  
 J. Gayvert,  Qinghui Ge,  G. Gidofalvi,  M. Goldey,  J. Gomes,  
 C. Gonzalez-Espinoza,  S. Gulania,  A. Gunina,  M. W. D. Hanson-Heine,  
 P. H. P. Harbach,  A. W. Hauser,  M. F. Herbst,  M. Hernandez Vera,  
 M. Hodecker,  Z. C. Holden,  S. Houck,  Xunkun Huang,  Kerwin Hui,  
 B. C. Huynh,  M. Ivanov,  Hyunjun Ji,  Hanjie Jiang,  B. Kaduk,  S. Kaehler,  
 K. Khistyaev,  Jaehoon Kim,  P. Klunzinger,  Z. Koczor-Benda,  
 Joong Hoon Koh,  D. Kosenkov,  L. Koulias,  T. Kowalczyk,  C. M. Krauter,  
 K. Kue,  A. Kunitsa,  T. Kus,  A. Landau,  K. V. Lawler,  D. Lefrancois,  
 S. Lehtola,  Rain Li,  Yi-Pei Li,  Jiashu Liang,  M. Liebenthal,  
 Hung-Hsuan Lin,  You-Sheng Lin,  Fenglai Liu,  Kuan-Yu Liu,  
 M. Loipersberger,  A. Luenser,  A. Manjanath,  P. Manohar,  E. Mansoor,  
 S. F. Manzer,  Shan-Ping Mao,  A. V. Marenich,  T. Markovich,  S. Mason,  
 S. A. Maurer,  P. F. McLaughlin,  M. F. S. J. Menger,  J.-M. Mewes,  
 S. A. Mewes,  P. Morgante,  J. W. Mullinax,  K. J. Oosterbaan,  G. Paran,  
 Alexander C. Paul,  Suranjan K. Paul,  F. Pavosevic,  Zheng Pei,  S. Prager,  
 E. I. Proynov,  E. Ramos,  B. Rana,  A. E. Rask,  A. Rettig,  R. M. Richard,  
 F. Rob,  E. Rossomme,  T. Scheele,  M. Scheurer,  M. Schneider,  
 N. Sergueev,  S. M. Sharada,  W. Skomorowski,  D. W. Small,  C. J. Stein,  
 Yu-Chuan Su,  E. J. Sundstrom,  Zhen Tao,  J. Thirman,  T. Tsuchimochi,  
 N. M. Tubman,  S. P. Veccham,  O. Vydrov,  J. Wenzel,  J. Witte,  A. Yamada,  
 Kun Yao,  S. Yeganeh,  S. R. Yost,  A. Zech,  Igor Ying Zhang,  Xing Zhang,  
 Yu Zhang,  D. Zuev,  A. Aspuru-Guzik,  A. T. Bell,  N. A. Besley,  
 K. B. Bravaya,  B. R. Brooks,  D. Casanova,  Jeng-Da Chai,  S. Coriani,  
 C. J. Cramer,  A. E. DePrince, III,  R. A. DiStasio Jr.,  A. Dreuw,  
 B. D. Dunietz,  T. R. Furlani,  W. A. Goddard III,  S. Grimme,  
 S. Hammes-Schiffer,  T. Head-Gordon,  W. J. Hehre,  Chao-Ping Hsu,  
 T.-C. Jagau,  Yousung Jung,  A. Klamt,  Jing Kong,  D. S. Lambrecht,  
 WanZhen Liang,  N. J. Mayhall,  C. W. McCurdy,  J. B. Neaton,  
 C. Ochsenfeld,  J. A. Parkhill,  R. Peverati,  V. A. Rassolov,  Yihan Shao,  
 L. V. Slipchenko,  T. Stauch,  R. P. Steele,  J. E. Subotnik,  
 A. J. W. Thom,  A. Tkatchenko,  D. G. Truhlar,  T. Van Voorhis,  
 T. A. Wesolowski,  K. B. Whaley,  H. L. Woodcock III,  P. M. Zimmerman,  
 S. Faraji,  P. M. W. Gill,  M. Head-Gordon,  J. M. Herbert,  A. I. Krylov

 Additional authors for Version 5.4.1: 
 S. Kotaru,  Shaozhi Li,  Xiangyuan Li,  F. Matz,  A. Molle,  Haisheng Ren,  
 Yingli Su,  Hung-Yi Tsai,  C. Utku,  Fang Wang

 Contributors to earlier versions of Q-Chem not listed above: 
 R. D. Adamson,  B. Austin,  R. Baer,  J. Baker,  G. J. O. Beran,  
 K. Brandhorst,  S. T. Brown,  E. F. C. Byrd,  A. K. Chakraborty,  
 G. K. L. Chan,  Chun-Min Chang,  Yunqing Chen,  C.-L. Cheng,  
 Siu Hung Chien,  D. M. Chipman,  D. L. Crittenden,  H. Dachsel,  
 R. J. Doerksen,  A. D. Dutoi,  R. G. Edgar,  J. Fosso-Tande,  
 L. Fusti-Molnar,  D. Ghosh,  A. Ghysels,  A. Golubeva-Zadorozhnaya,  
 J. Gonthier,  M. S. Gordon,  S. R. Gwaltney,  G. Hawkins,  J. E. Herr,  
 A. Heyden,  S. Hirata,  E. G. Hohenstein,  G. Kedziora,  F. J. Keil,  
 C. Kelley,  Jihan Kim,  R. A. King,  R. Z. Khaliullin,  P. P. Korambath,  
 W. Kurlancheek,  A. Laurent,  A. M. Lee,  M. S. Lee,  S. V. Levchenko,  
 Ching Yeh Lin,  D. Liotard,  E. Livshits,  R. C. Lochan,  I. Lotan,  
 L. A. Martinez-Martinez,  P. E. Maslen,  N. Nair,  D. P. O'Neill,  
 D. Neuhauser,  E. Neuscamman,  C. M. Oana,  R. Olivares-Amaya,  R. Olson,  
 T. M. Perrine,  B. Peters,  P. A. Pieniazek,  A. Prociuk,  Y. M. Rhee,  
 J. Ritchie,  M. A. Rohrdanz,  E. Rosta,  N. J. Russ,  H. F. Schaefer III,  
 M. W. Schmidt,  N. E. Schultz,  S. Sharma,  N. Shenvi,  C. D. Sherrill,  
 A. C. Simmonett,  A. Sodt,  T. Stein,  D. Stuck,  K. S. Thanthiriwatte,  
 V. Vanovschi,  L. Vogt,  Tao Wang,  A. Warshel,  M. A. Watson,  
 C. F. Williams,  Q. Wu,  X. Xu,  Jun Yang,  W. Zhang,  Yan Zhao

 Please cite Q-Chem as follows:
 Y. Shao et al., Mol. Phys. 113, 184-215 (2015)
 DOI: 10.1080/00268976.2014.952696

 Q-Chem 5.4.1 for Intel X86 EM64T Linux

 Parts of Q-Chem use Armadillo 9.900.5 (Nocturnal Misbehaviour).
 http://arma.sourceforge.net/

 Q-Chem begins on Wed Oct  6 18:12:02 2021  

 Host: s166
0

     Scratch files written to /tmp1/friede/qchem6290//
 Processing $rem in /home/mewes/SOFTWARE/QC54_TRUNK4INTEL_MM/config/preferences:
 Processing $rem in /home/friede/.qchemrc:
The previous job contains 0 fragments, simply inherited here

 Checking the input file for inconsistencies... 	...done.

--------------------------------------------------------------
User input:
--------------------------------------------------------------
$molecule
  read mol.mol
$end

$rem
jobtype               sp
basis                 def2-tzvpp
method                lc-wPBE08
omega                 100
thresh                11
scf_convergence       8
scf_max_cycles        250
geom_opt_max_cycles   250
geom_opt_dmax         140
sym_ignore            true
mem_static          1000
mem_total           24000
threads 1 
$end

--------------------------------------------------------------
 ----------------------------------------------------------------
             Standard Nuclear Orientation (Angstroms)
    I     Atom           X                Y                Z
 ----------------------------------------------------------------
    1      C      -0.4354916000    -1.9360639000     1.2377784000
    2      H      -0.5698884000    -2.7925686000     1.8971432000
    3      H      -0.6286774000    -1.0447974000     1.8322650000
    4      C       0.9946671000    -1.9405864000     0.6382817000
    5      H       1.5348830000    -2.8280297000     0.9665746000
    6      H       1.5790637000    -1.0776556000     0.9531025000
    7      C       0.8018003000    -1.9845226000    -0.8854153000
    8      H       1.6231346000    -2.4798419000    -1.4008877000
    9      H       0.7250892000    -0.9707978000    -1.2839629000
   10      C      -0.5426168000    -2.6890289000    -1.0559617000
   11      H      -0.4291083000    -3.7563000000    -0.8512037000
   12      H      -0.9652820000    -2.5812023000    -2.0538815000
   13      C      -1.3909704000    -2.0367076000     0.0348805000
   14      H      -2.3009781000    -2.5882137000     0.2652200000
   15      H      -1.6855103000    -1.0385508000    -0.2939332000
   16      C      -0.8018003000     1.9845226000    -0.8854153000
   17      H      -0.7250892000     0.9707978000    -1.2839629000
   18      H      -1.6231346000     2.4798419000    -1.4008877000
   19      C      -0.9946671000     1.9405864000     0.6382817000
   20      H      -1.5790637000     1.0776556000     0.9531025000
   21      H      -1.5348830000     2.8280297000     0.9665746000
   22      C       0.4354916000     1.9360639000     1.2377784000
   23      H       0.6286774000     1.0447974000     1.8322650000
   24      H       0.5698884000     2.7925686000     1.8971432000
   25      C       1.3909704000     2.0367076000     0.0348805000
   26      H       1.6855103000     1.0385508000    -0.2939332000
   27      H       2.3009781000     2.5882137000     0.2652200000
   28      C       0.5426168000     2.6890289000    -1.0559617000
   29      H       0.9652820000     2.5812023000    -2.0538815000
   30      H       0.4291083000     3.7563000000    -0.8512037000
 ----------------------------------------------------------------
 Nuclear Repulsion Energy =         562.01843918 hartrees
 There are       40 alpha and       40 beta electrons
 Requested basis set is def2-TZVPP
 There are 230 shells and 590 basis functions

 Total QAlloc Memory Limit  24000 MB
 Mega-Array Size       978 MB
 MEM_STATIC part      1000 MB
 A cutoff of  1.0D-11 yielded  21275 shell pairs
 There are    134023 function pairs (    166223 Cartesian)
 Smallest overlap matrix eigenvalue = 6.51E-05

 Scale SEOQF with 1.000000e-01/1.000000e-01/1.000000e-01

 Standard Electronic Orientation quadrupole field applied
 Nucleus-field energy     =     0.0000000216 hartrees
 Guess from superposition of atomic densities
 Warning:  Energy on first SCF cycle will be non-variational
 SAD guess density has 80.000000 electrons

 -----------------------------------------------------------------------
  General SCF calculation program by
  Eric Jon Sundstrom, Paul Horn, Yuezhi Mao, Dmitri Zuev, Alec White,
  David Stuck, Shaama M.S., Shane Yost, Joonho Lee, David Small,
  Daniel Levine, Susi Lehtola, Hugh Burton, Evgeny Epifanovsky,
  Bang C. Huynh
 -----------------------------------------------------------------------
 Exchange:  wPBE + LR-HF      Correlation:  PBE
 Using SG-1 standard quadrature grid
 A restricted SCF calculation will be
 performed using DIIS
 SCF converges when DIIS error is below 1.0e-08
 ---------------------------------------
  Cycle       Energy         DIIS error
 ---------------------------------------
    1    -394.6236828128      1.87e-02  
    2    -392.4356929827      2.48e-03  
    3    -392.2909012630      3.13e-03  
    4    -392.7177191033      2.39e-04  
    5    -392.7198620560      3.74e-05  
    6    -392.7199139448      1.54e-05  
    7    -392.7199242563      3.36e-06  
    8    -392.7199247007      1.42e-06  
    9    -392.7199247902      1.51e-07  
   10    -392.7199247944      3.22e-08  
   11    -392.7199247951      1.95e-08  
   12    -392.7199247908      2.68e-09  Convergence criterion met
 ---------------------------------------
 SCF time:   CPU 861.77s  wall 864.00s 
 SCF   energy in the final basis set =     -392.7199247908
 Total energy in the final basis set =     -392.7199247908
 
 --------------------------------------------------------------
 
                    Orbital Energies (a.u.)
 --------------------------------------------------------------
 
 Alpha MOs
 -- Occupied --
 -9.9275  -9.9275  -9.9274  -9.9274  -9.9272  -9.9272  -9.9271  -9.9271
 -9.9270  -9.9270  -0.8168  -0.8147  -0.6953  -0.6948  -0.6925  -0.6920
 -0.5685  -0.5640  -0.5567  -0.5566  -0.4939  -0.4857  -0.4848  -0.4787
 -0.4284  -0.4274  -0.4168  -0.4140  -0.3503  -0.3503  -0.3487  -0.3481
 -0.3481  -0.3466  -0.3445  -0.3440  -0.3409  -0.3290  -0.3248  -0.3236
 -- Virtual --
  0.0549   0.0746   0.0787   0.0908   0.0921   0.1121   0.1192   0.1219
  0.1259   0.1349   0.1428   0.1455   0.1464   0.1500   0.1508   0.1731
  0.1764   0.1807   0.1846   0.1876   0.1923   0.1978   0.2069   0.2233
  0.2275   0.2278   0.2318   0.2446   0.2452   0.2544   0.2567   0.2739
  0.2759   0.2873   0.2902   0.2932   0.3051   0.3146   0.3148   0.3295
  0.3412   0.3834   0.3860   0.3939   0.4022   0.4074   0.4167   0.4168
  0.4252   0.4271   0.4281   0.4334   0.4356   0.4422   0.4438   0.4482
  0.4483   0.4530   0.4543   0.4575   0.4605   0.4625   0.4654   0.4746
  0.4767   0.4802   0.4900   0.4966   0.5008   0.5083   0.5128   0.5212
  0.5362   0.5369   0.5395   0.5511   0.5519   0.5807   0.5832   0.5986
  0.6016   0.6270   0.6310   0.6405   0.6525   0.6551   0.6769   0.6783
  0.7176   0.7328   0.7521   0.7521   0.7841   0.8051   0.8105   0.8155
  0.8365   0.8398   0.8472   0.8687   0.8705   0.8757   0.8805   0.8810
  0.8903   0.8944   0.8964   0.9180   0.9216   0.9346   0.9549   0.9639
  0.9689   0.9781   0.9813   0.9939   1.0066   1.0120   1.0289   1.0341
  1.0463   1.0493   1.0556   1.0606   1.0665   1.0692   1.0803   1.0819
  1.0888   1.0988   1.1066   1.1158   1.1191   1.1363   1.1365   1.1529
  1.1596   1.1621   1.1653   1.1699   1.1860   1.1985   1.2217   1.2252
  1.2300   1.2390   1.2463   1.2647   1.2761   1.2763   1.2840   1.2850
  1.2999   1.3007   1.3106   1.3129   1.3225   1.3284   1.3363   1.3508
  1.3521   1.3740   1.3743   1.3909   1.3986   1.4161   1.4235   1.4282
  1.4392   1.4501   1.4563   1.4758   1.4809   1.4844   1.4902   1.4942
  1.5141   1.5219   1.5255   1.5268   1.5376   1.5481   1.5498   1.5708
  1.5801   1.5806   1.5964   1.5976   1.6013   1.6213   1.6336   1.6390
  1.6582   1.6680   1.6890   1.7032   1.7225   1.7300   1.7320   1.7458
  1.7544   1.7659   1.7660   1.7910   1.7944   1.8087   1.8176   1.8463
  1.9045   1.9194   1.9576   1.9737   2.0225   2.0253   2.0765   2.0793
  2.1016   2.1112   2.1130   2.1167   2.1499   2.1739   2.2236   2.2284
  2.2460   2.2566   2.3581   2.3693   2.3788   2.3845   2.4347   2.4349
  2.4476   2.4531   2.4565   2.4629   2.4933   2.4983   2.5163   2.5305
  2.5445   2.5447   2.5679   2.5784   2.5810   2.5857   2.5995   2.6063
  2.6083   2.6145   2.6373   2.6380   2.6630   2.6651   2.6821   2.6987
  2.7010   2.7216   2.7305   2.7454   2.7455   2.7591   2.7721   2.7858
  2.7968   2.8040   2.8063   2.8137   2.8286   2.8500   2.8525   2.8585
  2.8641   2.8862   2.8908   2.8932   2.9141   2.9264   2.9403   2.9619
  3.0029   3.0033   3.0158   3.0318   3.0446   3.0484   3.0534   3.0605
  3.0720   3.0751   3.0899   3.1017   3.1134   3.1169   3.1245   3.1411
  3.1411   3.1439   3.1534   3.1555   3.1645   3.1682   3.1759   3.1810
  3.1822   3.1872   3.1976   3.2028   3.2039   3.2200   3.2226   3.2301
  3.2406   3.2520   3.2540   3.2554   3.2779   3.2854   3.2990   3.3160
  3.3286   3.3408   3.3543   3.3547   3.3901   3.3934   3.4070   3.4327
  3.4442   3.4484   3.4526   3.4528   3.4688   3.4764   3.4856   3.4942
  3.5240   3.5290   3.5350   3.5502   3.5611   3.5687   3.5871   3.5977
  3.6032   3.6037   3.6173   3.6238   3.6247   3.6360   3.6529   3.6561
  3.6699   3.6749   3.6793   3.6831   3.6870   3.7011   3.7100   3.7127
  3.7316   3.7513   3.7559   3.7690   3.7745   3.7864   3.7971   3.8064
  3.8178   3.8228   3.8385   3.8495   3.8622   3.8755   3.8852   3.8875
  3.8895   3.9003   3.9097   3.9218   3.9416   3.9460   3.9558   3.9580
  3.9812   3.9815   3.9991   4.0011   4.0050   4.0168   4.0301   4.0509
  4.0523   4.0589   4.0684   4.0725   4.0791   4.0868   4.0983   4.1049
  4.1282   4.1309   4.1450   4.1479   4.1628   4.1685   4.1748   4.1800
  4.1955   4.1987   4.2014   4.2046   4.2059   4.2252   4.2256   4.2344
  4.2357   4.2622   4.2777   4.2795   4.2859   4.3019   4.3109   4.3243
  4.3245   4.3392   4.3504   4.3558   4.3702   4.3733   4.3912   4.4000
  4.4117   4.4144   4.4215   4.4320   4.4768   4.4789   4.4862   4.4866
  4.5064   4.5125   4.5276   4.5472   4.5522   4.5565   4.5803   4.5917
  4.5951   4.6060   4.6225   4.6513   4.6640   4.6734   4.6825   4.6828
  4.6914   4.7161   4.7218   4.7278   4.7364   4.7715   4.7732   4.7809
  4.7932   4.8041   4.8110   4.8178   4.8333   4.8364   4.8646   4.8655
  4.8949   4.9036   4.9233   4.9278   4.9380   4.9394   4.9429   4.9563
  4.9600   4.9752   4.9803   4.9871   5.0021   5.0035   5.0427   5.0607
  5.0746   5.0808   5.0968   5.1503   5.1718   5.1722   5.1774   5.1807
  5.2046   5.2261   5.2597   5.2722   5.3286   5.3361   5.3533   5.3627
  5.3784   5.3786   5.3895   5.4029   5.4052   5.4166   5.4247   5.4376
  5.4740   5.4845   5.4910   5.4945   5.5310   5.5354   5.5364   5.5425
  5.5739   5.5830   5.6139   5.6158   5.6401   5.6510   5.6662   5.6670
  5.6834   5.6882   5.7069   5.7115   5.7202   5.7273   5.7366   5.7556
  5.7928   5.8029   5.8749   5.8788  22.8946  22.9182  23.2346  23.2643
 23.2850  23.3027  23.3198  23.3283  23.3489  23.3505
 --------------------------------------------------------------
 
          Ground-State Mulliken Net Atomic Charges

     Atom                 Charge (a.u.)
  ----------------------------------------
      1 C                    -0.123275
      2 H                     0.064999
      3 H                     0.056743
      4 C                    -0.124569
      5 H                     0.065162
      6 H                     0.056484
      7 C                    -0.110233
      8 H                     0.055244
      9 H                     0.053416
     10 C                    -0.099068
     11 H                     0.052270
     12 H                     0.053726
     13 C                    -0.115041
     14 H                     0.055350
     15 H                     0.058791
     16 C                    -0.110233
     17 H                     0.053416
     18 H                     0.055244
     19 C                    -0.124569
     20 H                     0.056484
     21 H                     0.065162
     22 C                    -0.123275
     23 H                     0.056743
     24 H                     0.064999
     25 C                    -0.115041
     26 H                     0.058791
     27 H                     0.055350
     28 C                    -0.099068
     29 H                     0.053726
     30 H                     0.052270
  ----------------------------------------
  Sum of atomic charges =     0.000000

 -----------------------------------------------------------------
                    Cartesian Multipole Moments
 -----------------------------------------------------------------
    Charge (ESU x 10^10)
                -0.0000
    Dipole Moment (Debye)
         X      -0.0000      Y       0.0000      Z      -0.0423
       Tot       0.0423
    Quadrupole Moments (Debye-Ang)
        XX     -68.1094     XY      -0.2135     YY     -65.4791
        XZ      -0.0000     YZ      -0.0000     ZZ     -68.1131
    Octopole Moments (Debye-Ang^2)
       XXX      -0.0000    XXY       0.0000    XYY      -0.0000
       YYY       0.0000    XXZ      -0.1901    XYZ       1.1660
       YYZ       4.0340    XZZ       0.0000    YZZ      -0.0000
       ZZZ      -1.2522
    Hexadecapole Moments (Debye-Ang^3)
      XXXX    -505.0592   XXXY     -64.6364   XXYY    -409.8070
      XYYY     -72.1154   YYYY   -1953.2007   XXXZ      -0.0000
      XXYZ      -0.0000   XYYZ      -0.0000   YYYZ      -0.0000
      XXZZ    -164.9142   XYZZ     -21.7143   YYZZ    -415.5579
      XZZZ      -0.0000   YZZZ       0.0000   ZZZZ    -487.4289
 -----------------------------------------------------------------
 Total job time:  865.32s(wall), 862.39s(cpu) 
 Wed Oct  6 18:26:27 2021

        *************************************************************
        *                                                           *
        *  Thank you very much for using Q-Chem.  Have a nice day.  *
        *                                                           *
        *************************************************************


 
User input: 2 of 8 
 
                  Welcome to Q-Chem
     A Quantum Leap Into The Future Of Chemistry


 Q-Chem 5.4 (devel), Q-Chem, Inc., Pleasanton, CA (2021)

 E. Epifanovsky,  A. T. B. Gilbert,  Xintian Feng,  Joonho Lee,  Yuezhi Mao,  
 N. Mardirossian,  P. Pokhilko,  A. White,  M. Wormit,  M. P. Coons,  
 A. L. Dempwolff,  Zhengting Gan,  D. Hait,  P. R. Horn,  L. D. Jacobson,  
 I. Kaliman,  J. Kussmann,  A. W. Lange,  Ka Un Lao,  D. S. Levine,  Jie Liu,  
 S. C. McKenzie,  A. F. Morrison,  K. Nanda,  F. Plasser,  D. R. Rehn,  
 M. L. Vidal,  Zhi-Qiang You,  Ying Zhu,  B. Alam,  B. Albrecht,  
 A. Aldossary,  E. Alguire,  J. H. Andersen,  D. Barton,  K. Begam,  A. Behn,  
 Y. A. Bernard,  E. J. Berquist,  H. Burton,  A. Carreras,  K. Carter-Fenk,  
 R. Chakraborty,  A. D. Chien,  K. D. Closser,  V. Cofer-Shabica,  
 S. Dasgupta,  Jia Deng,  M. de Wergifosse,  M. Diedenhofen,  Hainam Do,  
 S. Ehlert,  Po-Tung Fang,  S. Fatehi,  Qingguo Feng,  T. Friedhoff,  
 J. Gayvert,  Qinghui Ge,  G. Gidofalvi,  M. Goldey,  J. Gomes,  
 C. Gonzalez-Espinoza,  S. Gulania,  A. Gunina,  M. W. D. Hanson-Heine,  
 P. H. P. Harbach,  A. W. Hauser,  M. F. Herbst,  M. Hernandez Vera,  
 M. Hodecker,  Z. C. Holden,  S. Houck,  Xunkun Huang,  Kerwin Hui,  
 B. C. Huynh,  M. Ivanov,  Hyunjun Ji,  Hanjie Jiang,  B. Kaduk,  S. Kaehler,  
 K. Khistyaev,  Jaehoon Kim,  P. Klunzinger,  Z. Koczor-Benda,  
 Joong Hoon Koh,  D. Kosenkov,  L. Koulias,  T. Kowalczyk,  C. M. Krauter,  
 K. Kue,  A. Kunitsa,  T. Kus,  A. Landau,  K. V. Lawler,  D. Lefrancois,  
 S. Lehtola,  Rain Li,  Yi-Pei Li,  Jiashu Liang,  M. Liebenthal,  
 Hung-Hsuan Lin,  You-Sheng Lin,  Fenglai Liu,  Kuan-Yu Liu,  
 M. Loipersberger,  A. Luenser,  A. Manjanath,  P. Manohar,  E. Mansoor,  
 S. F. Manzer,  Shan-Ping Mao,  A. V. Marenich,  T. Markovich,  S. Mason,  
 S. A. Maurer,  P. F. McLaughlin,  M. F. S. J. Menger,  J.-M. Mewes,  
 S. A. Mewes,  P. Morgante,  J. W. Mullinax,  K. J. Oosterbaan,  G. Paran,  
 Alexander C. Paul,  Suranjan K. Paul,  F. Pavosevic,  Zheng Pei,  S. Prager,  
 E. I. Proynov,  E. Ramos,  B. Rana,  A. E. Rask,  A. Rettig,  R. M. Richard,  
 F. Rob,  E. Rossomme,  T. Scheele,  M. Scheurer,  M. Schneider,  
 N. Sergueev,  S. M. Sharada,  W. Skomorowski,  D. W. Small,  C. J. Stein,  
 Yu-Chuan Su,  E. J. Sundstrom,  Zhen Tao,  J. Thirman,  T. Tsuchimochi,  
 N. M. Tubman,  S. P. Veccham,  O. Vydrov,  J. Wenzel,  J. Witte,  A. Yamada,  
 Kun Yao,  S. Yeganeh,  S. R. Yost,  A. Zech,  Igor Ying Zhang,  Xing Zhang,  
 Yu Zhang,  D. Zuev,  A. Aspuru-Guzik,  A. T. Bell,  N. A. Besley,  
 K. B. Bravaya,  B. R. Brooks,  D. Casanova,  Jeng-Da Chai,  S. Coriani,  
 C. J. Cramer,  A. E. DePrince, III,  R. A. DiStasio Jr.,  A. Dreuw,  
 B. D. Dunietz,  T. R. Furlani,  W. A. Goddard III,  S. Grimme,  
 S. Hammes-Schiffer,  T. Head-Gordon,  W. J. Hehre,  Chao-Ping Hsu,  
 T.-C. Jagau,  Yousung Jung,  A. Klamt,  Jing Kong,  D. S. Lambrecht,  
 WanZhen Liang,  N. J. Mayhall,  C. W. McCurdy,  J. B. Neaton,  
 C. Ochsenfeld,  J. A. Parkhill,  R. Peverati,  V. A. Rassolov,  Yihan Shao,  
 L. V. Slipchenko,  T. Stauch,  R. P. Steele,  J. E. Subotnik,  
 A. J. W. Thom,  A. Tkatchenko,  D. G. Truhlar,  T. Van Voorhis,  
 T. A. Wesolowski,  K. B. Whaley,  H. L. Woodcock III,  P. M. Zimmerman,  
 S. Faraji,  P. M. W. Gill,  M. Head-Gordon,  J. M. Herbert,  A. I. Krylov

 Additional authors for Version 5.4.1: 
 S. Kotaru,  Shaozhi Li,  Xiangyuan Li,  F. Matz,  A. Molle,  Haisheng Ren,  
 Yingli Su,  Hung-Yi Tsai,  C. Utku,  Fang Wang

 Contributors to earlier versions of Q-Chem not listed above: 
 R. D. Adamson,  B. Austin,  R. Baer,  J. Baker,  G. J. O. Beran,  
 K. Brandhorst,  S. T. Brown,  E. F. C. Byrd,  A. K. Chakraborty,  
 G. K. L. Chan,  Chun-Min Chang,  Yunqing Chen,  C.-L. Cheng,  
 Siu Hung Chien,  D. M. Chipman,  D. L. Crittenden,  H. Dachsel,  
 R. J. Doerksen,  A. D. Dutoi,  R. G. Edgar,  J. Fosso-Tande,  
 L. Fusti-Molnar,  D. Ghosh,  A. Ghysels,  A. Golubeva-Zadorozhnaya,  
 J. Gonthier,  M. S. Gordon,  S. R. Gwaltney,  G. Hawkins,  J. E. Herr,  
 A. Heyden,  S. Hirata,  E. G. Hohenstein,  G. Kedziora,  F. J. Keil,  
 C. Kelley,  Jihan Kim,  R. A. King,  R. Z. Khaliullin,  P. P. Korambath,  
 W. Kurlancheek,  A. Laurent,  A. M. Lee,  M. S. Lee,  S. V. Levchenko,  
 Ching Yeh Lin,  D. Liotard,  E. Livshits,  R. C. Lochan,  I. Lotan,  
 L. A. Martinez-Martinez,  P. E. Maslen,  N. Nair,  D. P. O'Neill,  
 D. Neuhauser,  E. Neuscamman,  C. M. Oana,  R. Olivares-Amaya,  R. Olson,  
 T. M. Perrine,  B. Peters,  P. A. Pieniazek,  A. Prociuk,  Y. M. Rhee,  
 J. Ritchie,  M. A. Rohrdanz,  E. Rosta,  N. J. Russ,  H. F. Schaefer III,  
 M. W. Schmidt,  N. E. Schultz,  S. Sharma,  N. Shenvi,  C. D. Sherrill,  
 A. C. Simmonett,  A. Sodt,  T. Stein,  D. Stuck,  K. S. Thanthiriwatte,  
 V. Vanovschi,  L. Vogt,  Tao Wang,  A. Warshel,  M. A. Watson,  
 C. F. Williams,  Q. Wu,  X. Xu,  Jun Yang,  W. Zhang,  Yan Zhao

 Please cite Q-Chem as follows:
 Y. Shao et al., Mol. Phys. 113, 184-215 (2015)
 DOI: 10.1080/00268976.2014.952696

 Q-Chem 5.4.1 for Intel X86 EM64T Linux

 Parts of Q-Chem use Armadillo 9.900.5 (Nocturnal Misbehaviour).
 http://arma.sourceforge.net/

 Q-Chem begins on Wed Oct  6 18:26:28 2021  

 Host: s166
0

     Scratch files written to /tmp1/friede/qchem6290//
 Processing $rem in /home/mewes/SOFTWARE/QC54_TRUNK4INTEL_MM/config/preferences:
 Processing $rem in /home/friede/.qchemrc:
The previous job contains 0 fragments, simply inherited here

 Checking the input file for inconsistencies... 	...done.

--------------------------------------------------------------
User input:
--------------------------------------------------------------

$molecule
  read
$end

$rem
jobtype               sp
basis                 def2-tzvpp
method                lc-wPBE08
omega                 150
scf_guess             read  
thresh                11
scf_convergence       8
scf_max_cycles        250
geom_opt_max_cycles   250
geom_opt_dmax         140
sym_ignore            true
mem_static          1000
mem_total           24000
threads 1 
$end


--------------------------------------------------------------
 ----------------------------------------------------------------
             Standard Nuclear Orientation (Angstroms)
    I     Atom           X                Y                Z
 ----------------------------------------------------------------
    1      C      -0.4354916000    -1.9360639000     1.2377784000
    2      H      -0.5698884000    -2.7925686000     1.8971432000
    3      H      -0.6286774000    -1.0447974000     1.8322650000
    4      C       0.9946671000    -1.9405864000     0.6382817000
    5      H       1.5348830000    -2.8280297000     0.9665746000
    6      H       1.5790637000    -1.0776556000     0.9531025000
    7      C       0.8018003000    -1.9845226000    -0.8854153000
    8      H       1.6231346000    -2.4798419000    -1.4008877000
    9      H       0.7250892000    -0.9707978000    -1.2839629000
   10      C      -0.5426168000    -2.6890289000    -1.0559617000
   11      H      -0.4291083000    -3.7563000000    -0.8512037000
   12      H      -0.9652820000    -2.5812023000    -2.0538815000
   13      C      -1.3909704000    -2.0367076000     0.0348805000
   14      H      -2.3009781000    -2.5882137000     0.2652200000
   15      H      -1.6855103000    -1.0385508000    -0.2939332000
   16      C      -0.8018003000     1.9845226000    -0.8854153000
   17      H      -0.7250892000     0.9707978000    -1.2839629000
   18      H      -1.6231346000     2.4798419000    -1.4008877000
   19      C      -0.9946671000     1.9405864000     0.6382817000
   20      H      -1.5790637000     1.0776556000     0.9531025000
   21      H      -1.5348830000     2.8280297000     0.9665746000
   22      C       0.4354916000     1.9360639000     1.2377784000
   23      H       0.6286774000     1.0447974000     1.8322650000
   24      H       0.5698884000     2.7925686000     1.8971432000
   25      C       1.3909704000     2.0367076000     0.0348805000
   26      H       1.6855103000     1.0385508000    -0.2939332000
   27      H       2.3009781000     2.5882137000     0.2652200000
   28      C       0.5426168000     2.6890289000    -1.0559617000
   29      H       0.9652820000     2.5812023000    -2.0538815000
   30      H       0.4291083000     3.7563000000    -0.8512037000
 ----------------------------------------------------------------
 Nuclear Repulsion Energy =         562.01843918 hartrees
 There are       40 alpha and       40 beta electrons
 Requested basis set is def2-TZVPP
 There are 230 shells and 590 basis functions

 Total QAlloc Memory Limit  24000 MB
 Mega-Array Size       978 MB
 MEM_STATIC part      1000 MB
 A cutoff of  1.0D-11 yielded  21275 shell pairs
 There are    134023 function pairs (    166223 Cartesian)
 Smallest overlap matrix eigenvalue = 6.51E-05

 Scale SEOQF with 1.000000e-01/1.000000e-01/1.000000e-01

 Standard Electronic Orientation quadrupole field applied
 Nucleus-field energy     =     0.0000000216 hartrees
 Guess MOs from SCF MO coefficient file

 -----------------------------------------------------------------------
  General SCF calculation program by
  Eric Jon Sundstrom, Paul Horn, Yuezhi Mao, Dmitri Zuev, Alec White,
  David Stuck, Shaama M.S., Shane Yost, Joonho Lee, David Small,
  Daniel Levine, Susi Lehtola, Hugh Burton, Evgeny Epifanovsky,
  Bang C. Huynh
 -----------------------------------------------------------------------
 Exchange:  wPBE + LR-HF      Correlation:  PBE
 Using SG-1 standard quadrature grid
 A restricted SCF calculation will be
 performed using DIIS
 SCF converges when DIIS error is below 1.0e-08
 ---------------------------------------
  Cycle       Energy         DIIS error
 ---------------------------------------
    1    -392.7631822639      5.46e-05  
    2    -392.7633996253      8.34e-06  
    3    -392.7634058954      4.58e-06  
    4    -392.7634066734      2.07e-06  
    5    -392.7634068573      2.84e-07  
    6    -392.7634068572      4.99e-08  
    7    -392.7634068595      1.63e-08  
    8    -392.7634068547      6.86e-09  Convergence criterion met
 ---------------------------------------
 SCF time:   CPU 550.49s  wall 550.00s 
 SCF   energy in the final basis set =     -392.7634068547
 Total energy in the final basis set =     -392.7634068547
 
 --------------------------------------------------------------
 
                    Orbital Energies (a.u.)
 --------------------------------------------------------------
 
 Alpha MOs
 -- Occupied --
 -9.9556  -9.9556  -9.9555  -9.9555  -9.9553  -9.9553  -9.9552  -9.9552
 -9.9551  -9.9551  -0.8464  -0.8442  -0.7242  -0.7237  -0.7214  -0.7209
 -0.5966  -0.5919  -0.5845  -0.5844  -0.5212  -0.5124  -0.5115  -0.5052
 -0.4541  -0.4530  -0.4419  -0.4391  -0.3741  -0.3740  -0.3725  -0.3717
 -0.3717  -0.3702  -0.3681  -0.3676  -0.3647  -0.3523  -0.3483  -0.3471
 -- Virtual --
  0.0736   0.0928   0.0972   0.1094   0.1109   0.1303   0.1371   0.1400
  0.1440   0.1535   0.1614   0.1639   0.1646   0.1681   0.1694   0.1928
  0.1956   0.2007   0.2043   0.2075   0.2128   0.2178   0.2265   0.2431
  0.2474   0.2477   0.2520   0.2649   0.2649   0.2744   0.2770   0.2943
  0.2969   0.3083   0.3110   0.3139   0.3261   0.3360   0.3366   0.3507
  0.3623   0.4044   0.4064   0.4145   0.4229   0.4285   0.4369   0.4379
  0.4470   0.4479   0.4496   0.4541   0.4573   0.4639   0.4654   0.4691
  0.4704   0.4735   0.4750   0.4778   0.4820   0.4833   0.4868   0.4950
  0.4981   0.5008   0.5110   0.5182   0.5214   0.5304   0.5348   0.5436
  0.5577   0.5588   0.5613   0.5723   0.5736   0.6010   0.6041   0.6201
  0.6226   0.6492   0.6526   0.6630   0.6752   0.6772   0.6998   0.7014
  0.7401   0.7550   0.7747   0.7752   0.8071   0.8281   0.8335   0.8385
  0.8594   0.8633   0.8711   0.8921   0.8939   0.8984   0.9035   0.9047
  0.9140   0.9175   0.9190   0.9410   0.9453   0.9576   0.9785   0.9876
  0.9927   1.0024   1.0047   1.0171   1.0300   1.0359   1.0525   1.0579
  1.0700   1.0730   1.0793   1.0838   1.0895   1.0929   1.1041   1.1060
  1.1126   1.1227   1.1304   1.1397   1.1428   1.1599   1.1602   1.1766
  1.1828   1.1857   1.1893   1.1939   1.2102   1.2228   1.2454   1.2493
  1.2538   1.2630   1.2703   1.2884   1.2997   1.3001   1.3081   1.3091
  1.3234   1.3248   1.3344   1.3370   1.3467   1.3524   1.3605   1.3750
  1.3761   1.3983   1.3985   1.4150   1.4228   1.4403   1.4476   1.4522
  1.4638   1.4746   1.4807   1.5001   1.5052   1.5090   1.5147   1.5185
  1.5384   1.5466   1.5502   1.5514   1.5620   1.5727   1.5744   1.5953
  1.6048   1.6052   1.6208   1.6221   1.6260   1.6459   1.6582   1.6630
  1.6825   1.6919   1.7137   1.7274   1.7469   1.7541   1.7565   1.7702
  1.7791   1.7902   1.7907   1.8153   1.8192   1.8334   1.8416   1.8706
  1.9290   1.9437   1.9823   1.9988   2.0477   2.0505   2.1022   2.1048
  2.1273   2.1369   2.1387   2.1423   2.1755   2.1994   2.2495   2.2544
  2.2722   2.2826   2.3840   2.3953   2.4047   2.4105   2.4611   2.4613
  2.4736   2.4792   2.4825   2.4888   2.5195   2.5244   2.5425   2.5567
  2.5707   2.5709   2.5943   2.6045   2.6074   2.6119   2.6258   2.6327
  2.6346   2.6408   2.6636   2.6642   2.6893   2.6914   2.7083   2.7247
  2.7272   2.7478   2.7567   2.7715   2.7716   2.7854   2.7982   2.8119
  2.8228   2.8303   2.8325   2.8399   2.8546   2.8760   2.8785   2.8847
  2.8901   2.9122   2.9170   2.9193   2.9402   2.9524   2.9663   2.9879
  3.0289   3.0293   3.0417   3.0577   3.0707   3.0745   3.0795   3.0864
  3.0979   3.1010   3.1160   3.1279   3.1396   3.1430   3.1509   3.1671
  3.1672   3.1700   3.1794   3.1816   3.1904   3.1944   3.2020   3.2070
  3.2083   3.2133   3.2236   3.2288   3.2299   3.2461   3.2486   3.2562
  3.2666   3.2779   3.2799   3.2816   3.3040   3.3113   3.3249   3.3421
  3.3545   3.3668   3.3804   3.3807   3.4161   3.4195   3.4332   3.4586
  3.4701   3.4743   3.4784   3.4787   3.4948   3.5023   3.5115   3.5202
  3.5499   3.5550   3.5610   3.5763   3.5869   3.5946   3.6132   3.6238
  3.6293   3.6296   3.6433   3.6499   3.6509   3.6621   3.6788   3.6821
  3.6958   3.7011   3.7052   3.7088   3.7129   3.7272   3.7360   3.7387
  3.7577   3.7771   3.7819   3.7948   3.8004   3.8123   3.8229   3.8329
  3.8437   3.8486   3.8647   3.8756   3.8884   3.9015   3.9111   3.9137
  3.9156   3.9265   3.9354   3.9478   3.9677   3.9721   3.9818   3.9840
  4.0073   4.0075   4.0251   4.0272   4.0311   4.0428   4.0561   4.0769
  4.0783   4.0849   4.0945   4.0985   4.1049   4.1126   4.1242   4.1308
  4.1540   4.1568   4.1709   4.1739   4.1886   4.1944   4.2007   4.2058
  4.2214   4.2246   4.2271   4.2305   4.2318   4.2511   4.2516   4.2602
  4.2617   4.2881   4.3036   4.3055   4.3118   4.3277   4.3367   4.3503
  4.3503   4.3653   4.3764   4.3818   4.3961   4.3991   4.4170   4.4260
  4.4376   4.4404   4.4475   4.4579   4.5028   4.5048   4.5122   4.5126
  4.5325   4.5385   4.5538   4.5732   4.5783   4.5826   4.6065   4.6177
  4.6212   4.6322   4.6487   4.6776   4.6902   4.6996   4.7086   4.7091
  4.7175   4.7425   4.7481   4.7541   4.7626   4.7977   4.7994   4.8071
  4.8195   4.8305   4.8373   4.8442   4.8597   4.8627   4.8910   4.8919
  4.9212   4.9300   4.9498   4.9543   4.9645   4.9659   4.9694   4.9828
  4.9866   5.0017   5.0067   5.0135   5.0289   5.0303   5.0691   5.0872
  5.1011   5.1073   5.1236   5.1771   5.1981   5.1985   5.2040   5.2072
  5.2311   5.2525   5.2861   5.2986   5.3551   5.3628   5.3799   5.3892
  5.4049   5.4053   5.4158   5.4294   5.4316   5.4431   5.4512   5.4642
  5.5006   5.5114   5.5179   5.5211   5.5578   5.5622   5.5633   5.5693
  5.6006   5.6099   5.6407   5.6426   5.6668   5.6778   5.6930   5.6938
  5.7104   5.7150   5.7336   5.7383   5.7472   5.7540   5.7634   5.7824
  5.8197   5.8297   5.9019   5.9058  22.9226  22.9463  23.2627  23.2924
 23.3130  23.3308  23.3479  23.3564  23.3770  23.3786
 --------------------------------------------------------------
 
          Ground-State Mulliken Net Atomic Charges

     Atom                 Charge (a.u.)
  ----------------------------------------
      1 C                    -0.123029
      2 H                     0.064625
      3 H                     0.055972
      4 C                    -0.125129
      5 H                     0.065072
      6 H                     0.055951
      7 C                    -0.108976
      8 H                     0.054757
      9 H                     0.052635
     10 C                    -0.095750
     11 H                     0.052207
     12 H                     0.052730
     13 C                    -0.114315
     14 H                     0.054854
     15 H                     0.058395
     16 C                    -0.108976
     17 H                     0.052635
     18 H                     0.054757
     19 C                    -0.125129
     20 H                     0.055951
     21 H                     0.065072
     22 C                    -0.123030
     23 H                     0.055972
     24 H                     0.064625
     25 C                    -0.114315
     26 H                     0.058395
     27 H                     0.054854
     28 C                    -0.095750
     29 H                     0.052730
     30 H                     0.052207
  ----------------------------------------
  Sum of atomic charges =     0.000000

 -----------------------------------------------------------------
                    Cartesian Multipole Moments
 -----------------------------------------------------------------
    Charge (ESU x 10^10)
                -0.0000
    Dipole Moment (Debye)
         X      -0.0000      Y      -0.0000      Z      -0.0407
       Tot       0.0407
    Quadrupole Moments (Debye-Ang)
        XX     -67.9818     XY      -0.2144     YY     -65.3815
        XZ      -0.0000     YZ      -0.0000     ZZ     -67.9883
    Octopole Moments (Debye-Ang^2)
       XXX      -0.0000    XXY      -0.0000    XYY      -0.0000
       YYY      -0.0000    XXZ      -0.1879    XYZ       1.1706
       YYZ       4.0386    XZZ      -0.0000    YZZ       0.0000
       ZZZ      -1.2465
    Hexadecapole Moments (Debye-Ang^3)
      XXXX    -503.8217   XXXY     -64.5189   XXYY    -408.9377
      XYYY     -72.0329   YYYY   -1949.6493   XXXZ       0.0000
      XXYZ       0.0000   XYYZ       0.0000   YYYZ      -0.0000
      XXZZ    -164.5142   XYZZ     -21.6663   YYZZ    -414.7025
      XZZZ      -0.0000   YZZZ      -0.0000   ZZZZ    -486.2704
 -----------------------------------------------------------------
 Total job time:  551.62s(wall), 551.03s(cpu) 
 Wed Oct  6 18:35:39 2021

        *************************************************************
        *                                                           *
        *  Thank you very much for using Q-Chem.  Have a nice day.  *
        *                                                           *
        *************************************************************


 
User input: 3 of 8 
 
                  Welcome to Q-Chem
     A Quantum Leap Into The Future Of Chemistry


 Q-Chem 5.4 (devel), Q-Chem, Inc., Pleasanton, CA (2021)

 E. Epifanovsky,  A. T. B. Gilbert,  Xintian Feng,  Joonho Lee,  Yuezhi Mao,  
 N. Mardirossian,  P. Pokhilko,  A. White,  M. Wormit,  M. P. Coons,  
 A. L. Dempwolff,  Zhengting Gan,  D. Hait,  P. R. Horn,  L. D. Jacobson,  
 I. Kaliman,  J. Kussmann,  A. W. Lange,  Ka Un Lao,  D. S. Levine,  Jie Liu,  
 S. C. McKenzie,  A. F. Morrison,  K. Nanda,  F. Plasser,  D. R. Rehn,  
 M. L. Vidal,  Zhi-Qiang You,  Ying Zhu,  B. Alam,  B. Albrecht,  
 A. Aldossary,  E. Alguire,  J. H. Andersen,  D. Barton,  K. Begam,  A. Behn,  
 Y. A. Bernard,  E. J. Berquist,  H. Burton,  A. Carreras,  K. Carter-Fenk,  
 R. Chakraborty,  A. D. Chien,  K. D. Closser,  V. Cofer-Shabica,  
 S. Dasgupta,  Jia Deng,  M. de Wergifosse,  M. Diedenhofen,  Hainam Do,  
 S. Ehlert,  Po-Tung Fang,  S. Fatehi,  Qingguo Feng,  T. Friedhoff,  
 J. Gayvert,  Qinghui Ge,  G. Gidofalvi,  M. Goldey,  J. Gomes,  
 C. Gonzalez-Espinoza,  S. Gulania,  A. Gunina,  M. W. D. Hanson-Heine,  
 P. H. P. Harbach,  A. W. Hauser,  M. F. Herbst,  M. Hernandez Vera,  
 M. Hodecker,  Z. C. Holden,  S. Houck,  Xunkun Huang,  Kerwin Hui,  
 B. C. Huynh,  M. Ivanov,  Hyunjun Ji,  Hanjie Jiang,  B. Kaduk,  S. Kaehler,  
 K. Khistyaev,  Jaehoon Kim,  P. Klunzinger,  Z. Koczor-Benda,  
 Joong Hoon Koh,  D. Kosenkov,  L. Koulias,  T. Kowalczyk,  C. M. Krauter,  
 K. Kue,  A. Kunitsa,  T. Kus,  A. Landau,  K. V. Lawler,  D. Lefrancois,  
 S. Lehtola,  Rain Li,  Yi-Pei Li,  Jiashu Liang,  M. Liebenthal,  
 Hung-Hsuan Lin,  You-Sheng Lin,  Fenglai Liu,  Kuan-Yu Liu,  
 M. Loipersberger,  A. Luenser,  A. Manjanath,  P. Manohar,  E. Mansoor,  
 S. F. Manzer,  Shan-Ping Mao,  A. V. Marenich,  T. Markovich,  S. Mason,  
 S. A. Maurer,  P. F. McLaughlin,  M. F. S. J. Menger,  J.-M. Mewes,  
 S. A. Mewes,  P. Morgante,  J. W. Mullinax,  K. J. Oosterbaan,  G. Paran,  
 Alexander C. Paul,  Suranjan K. Paul,  F. Pavosevic,  Zheng Pei,  S. Prager,  
 E. I. Proynov,  E. Ramos,  B. Rana,  A. E. Rask,  A. Rettig,  R. M. Richard,  
 F. Rob,  E. Rossomme,  T. Scheele,  M. Scheurer,  M. Schneider,  
 N. Sergueev,  S. M. Sharada,  W. Skomorowski,  D. W. Small,  C. J. Stein,  
 Yu-Chuan Su,  E. J. Sundstrom,  Zhen Tao,  J. Thirman,  T. Tsuchimochi,  
 N. M. Tubman,  S. P. Veccham,  O. Vydrov,  J. Wenzel,  J. Witte,  A. Yamada,  
 Kun Yao,  S. Yeganeh,  S. R. Yost,  A. Zech,  Igor Ying Zhang,  Xing Zhang,  
 Yu Zhang,  D. Zuev,  A. Aspuru-Guzik,  A. T. Bell,  N. A. Besley,  
 K. B. Bravaya,  B. R. Brooks,  D. Casanova,  Jeng-Da Chai,  S. Coriani,  
 C. J. Cramer,  A. E. DePrince, III,  R. A. DiStasio Jr.,  A. Dreuw,  
 B. D. Dunietz,  T. R. Furlani,  W. A. Goddard III,  S. Grimme,  
 S. Hammes-Schiffer,  T. Head-Gordon,  W. J. Hehre,  Chao-Ping Hsu,  
 T.-C. Jagau,  Yousung Jung,  A. Klamt,  Jing Kong,  D. S. Lambrecht,  
 WanZhen Liang,  N. J. Mayhall,  C. W. McCurdy,  J. B. Neaton,  
 C. Ochsenfeld,  J. A. Parkhill,  R. Peverati,  V. A. Rassolov,  Yihan Shao,  
 L. V. Slipchenko,  T. Stauch,  R. P. Steele,  J. E. Subotnik,  
 A. J. W. Thom,  A. Tkatchenko,  D. G. Truhlar,  T. Van Voorhis,  
 T. A. Wesolowski,  K. B. Whaley,  H. L. Woodcock III,  P. M. Zimmerman,  
 S. Faraji,  P. M. W. Gill,  M. Head-Gordon,  J. M. Herbert,  A. I. Krylov

 Additional authors for Version 5.4.1: 
 S. Kotaru,  Shaozhi Li,  Xiangyuan Li,  F. Matz,  A. Molle,  Haisheng Ren,  
 Yingli Su,  Hung-Yi Tsai,  C. Utku,  Fang Wang

 Contributors to earlier versions of Q-Chem not listed above: 
 R. D. Adamson,  B. Austin,  R. Baer,  J. Baker,  G. J. O. Beran,  
 K. Brandhorst,  S. T. Brown,  E. F. C. Byrd,  A. K. Chakraborty,  
 G. K. L. Chan,  Chun-Min Chang,  Yunqing Chen,  C.-L. Cheng,  
 Siu Hung Chien,  D. M. Chipman,  D. L. Crittenden,  H. Dachsel,  
 R. J. Doerksen,  A. D. Dutoi,  R. G. Edgar,  J. Fosso-Tande,  
 L. Fusti-Molnar,  D. Ghosh,  A. Ghysels,  A. Golubeva-Zadorozhnaya,  
 J. Gonthier,  M. S. Gordon,  S. R. Gwaltney,  G. Hawkins,  J. E. Herr,  
 A. Heyden,  S. Hirata,  E. G. Hohenstein,  G. Kedziora,  F. J. Keil,  
 C. Kelley,  Jihan Kim,  R. A. King,  R. Z. Khaliullin,  P. P. Korambath,  
 W. Kurlancheek,  A. Laurent,  A. M. Lee,  M. S. Lee,  S. V. Levchenko,  
 Ching Yeh Lin,  D. Liotard,  E. Livshits,  R. C. Lochan,  I. Lotan,  
 L. A. Martinez-Martinez,  P. E. Maslen,  N. Nair,  D. P. O'Neill,  
 D. Neuhauser,  E. Neuscamman,  C. M. Oana,  R. Olivares-Amaya,  R. Olson,  
 T. M. Perrine,  B. Peters,  P. A. Pieniazek,  A. Prociuk,  Y. M. Rhee,  
 J. Ritchie,  M. A. Rohrdanz,  E. Rosta,  N. J. Russ,  H. F. Schaefer III,  
 M. W. Schmidt,  N. E. Schultz,  S. Sharma,  N. Shenvi,  C. D. Sherrill,  
 A. C. Simmonett,  A. Sodt,  T. Stein,  D. Stuck,  K. S. Thanthiriwatte,  
 V. Vanovschi,  L. Vogt,  Tao Wang,  A. Warshel,  M. A. Watson,  
 C. F. Williams,  Q. Wu,  X. Xu,  Jun Yang,  W. Zhang,  Yan Zhao

 Please cite Q-Chem as follows:
 Y. Shao et al., Mol. Phys. 113, 184-215 (2015)
 DOI: 10.1080/00268976.2014.952696

 Q-Chem 5.4.1 for Intel X86 EM64T Linux

 Parts of Q-Chem use Armadillo 9.900.5 (Nocturnal Misbehaviour).
 http://arma.sourceforge.net/

 Q-Chem begins on Wed Oct  6 18:35:39 2021  

 Host: s166
0

     Scratch files written to /tmp1/friede/qchem6290//
 Processing $rem in /home/mewes/SOFTWARE/QC54_TRUNK4INTEL_MM/config/preferences:
 Processing $rem in /home/friede/.qchemrc:
The previous job contains 0 fragments, simply inherited here

 Checking the input file for inconsistencies... 	...done.

--------------------------------------------------------------
User input:
--------------------------------------------------------------

$molecule
  read
$end

$rem
jobtype               sp
basis                 def2-tzvpp
method                lc-wPBE08
omega                 200
scf_guess             read
thresh                11
scf_convergence       8
scf_max_cycles        250
geom_opt_max_cycles   250
geom_opt_dmax         140
sym_ignore            true
mem_static          1000
mem_total           24000
threads 1 
$end

--------------------------------------------------------------
 ----------------------------------------------------------------
             Standard Nuclear Orientation (Angstroms)
    I     Atom           X                Y                Z
 ----------------------------------------------------------------
    1      C      -0.4354916000    -1.9360639000     1.2377784000
    2      H      -0.5698884000    -2.7925686000     1.8971432000
    3      H      -0.6286774000    -1.0447974000     1.8322650000
    4      C       0.9946671000    -1.9405864000     0.6382817000
    5      H       1.5348830000    -2.8280297000     0.9665746000
    6      H       1.5790637000    -1.0776556000     0.9531025000
    7      C       0.8018003000    -1.9845226000    -0.8854153000
    8      H       1.6231346000    -2.4798419000    -1.4008877000
    9      H       0.7250892000    -0.9707978000    -1.2839629000
   10      C      -0.5426168000    -2.6890289000    -1.0559617000
   11      H      -0.4291083000    -3.7563000000    -0.8512037000
   12      H      -0.9652820000    -2.5812023000    -2.0538815000
   13      C      -1.3909704000    -2.0367076000     0.0348805000
   14      H      -2.3009781000    -2.5882137000     0.2652200000
   15      H      -1.6855103000    -1.0385508000    -0.2939332000
   16      C      -0.8018003000     1.9845226000    -0.8854153000
   17      H      -0.7250892000     0.9707978000    -1.2839629000
   18      H      -1.6231346000     2.4798419000    -1.4008877000
   19      C      -0.9946671000     1.9405864000     0.6382817000
   20      H      -1.5790637000     1.0776556000     0.9531025000
   21      H      -1.5348830000     2.8280297000     0.9665746000
   22      C       0.4354916000     1.9360639000     1.2377784000
   23      H       0.6286774000     1.0447974000     1.8322650000
   24      H       0.5698884000     2.7925686000     1.8971432000
   25      C       1.3909704000     2.0367076000     0.0348805000
   26      H       1.6855103000     1.0385508000    -0.2939332000
   27      H       2.3009781000     2.5882137000     0.2652200000
   28      C       0.5426168000     2.6890289000    -1.0559617000
   29      H       0.9652820000     2.5812023000    -2.0538815000
   30      H       0.4291083000     3.7563000000    -0.8512037000
 ----------------------------------------------------------------
 Nuclear Repulsion Energy =         562.01843918 hartrees
 There are       40 alpha and       40 beta electrons
 Requested basis set is def2-TZVPP
 There are 230 shells and 590 basis functions

 Total QAlloc Memory Limit  24000 MB
 Mega-Array Size       978 MB
 MEM_STATIC part      1000 MB
 A cutoff of  1.0D-11 yielded  21275 shell pairs
 There are    134023 function pairs (    166223 Cartesian)
 Smallest overlap matrix eigenvalue = 6.51E-05

 Scale SEOQF with 1.000000e-01/1.000000e-01/1.000000e-01

 Standard Electronic Orientation quadrupole field applied
 Nucleus-field energy     =     0.0000000216 hartrees
 Guess MOs from SCF MO coefficient file

 -----------------------------------------------------------------------
  General SCF calculation program by
  Eric Jon Sundstrom, Paul Horn, Yuezhi Mao, Dmitri Zuev, Alec White,
  David Stuck, Shaama M.S., Shane Yost, Joonho Lee, David Small,
  Daniel Levine, Susi Lehtola, Hugh Burton, Evgeny Epifanovsky,
  Bang C. Huynh
 -----------------------------------------------------------------------
 Exchange:  wPBE + LR-HF      Correlation:  PBE
 Using SG-1 standard quadrature grid
 A restricted SCF calculation will be
 performed using DIIS
 SCF converges when DIIS error is below 1.0e-08
 ---------------------------------------
  Cycle       Energy         DIIS error
 ---------------------------------------
    1    -392.8135857002      6.85e-05  
    2    -392.8139274040      1.15e-05  
    3    -392.8139398559      5.40e-06  
    4    -392.8139409950      2.28e-06  
    5    -392.8139412281      2.63e-07  
    6    -392.8139412292      5.67e-08  
    7    -392.8139412316      1.75e-08  
    8    -392.8139412298      8.14e-09  Convergence criterion met
 ---------------------------------------
 SCF time:   CPU 557.83s  wall 558.00s 
 SCF   energy in the final basis set =     -392.8139412298
 Total energy in the final basis set =     -392.8139412298
 
 --------------------------------------------------------------
 
                    Orbital Energies (a.u.)
 --------------------------------------------------------------
 
 Alpha MOs
 -- Occupied --
 -9.9834  -9.9834  -9.9833  -9.9833  -9.9832  -9.9832  -9.9830  -9.9830
 -9.9829  -9.9829  -0.8762  -0.8740  -0.7529  -0.7523  -0.7499  -0.7493
 -0.6234  -0.6185  -0.6109  -0.6108  -0.5466  -0.5371  -0.5362  -0.5296
 -0.4776  -0.4763  -0.4647  -0.4617  -0.3949  -0.3948  -0.3933  -0.3922
 -0.3922  -0.3909  -0.3886  -0.3880  -0.3854  -0.3726  -0.3688  -0.3675
 -- Virtual --
  0.0876   0.1060   0.1109   0.1230   0.1248   0.1436   0.1502   0.1532
  0.1572   0.1673   0.1752   0.1776   0.1781   0.1814   0.1832   0.2077
  0.2100   0.2163   0.2195   0.2226   0.2287   0.2338   0.2415   0.2584
  0.2625   0.2627   0.2678   0.2799   0.2806   0.2898   0.2928   0.3099
  0.3134   0.3248   0.3273   0.3301   0.3429   0.3528   0.3545   0.3677
  0.3791   0.4213   0.4230   0.4309   0.4397   0.4458   0.4532   0.4550
  0.4644   0.4657   0.4673   0.4715   0.4759   0.4820   0.4833   0.4861
  0.4887   0.4906   0.4927   0.4951   0.5005   0.5007   0.5055   0.5119
  0.5160   0.5182   0.5289   0.5367   0.5384   0.5498   0.5535   0.5629
  0.5751   0.5773   0.5803   0.5901   0.5919   0.6176   0.6210   0.6379
  0.6402   0.6682   0.6706   0.6824   0.6947   0.6958   0.7195   0.7214
  0.7593   0.7737   0.7941   0.7953   0.8269   0.8482   0.8537   0.8586
  0.8793   0.8839   0.8924   0.9128   0.9144   0.9183   0.9236   0.9258
  0.9350   0.9377   0.9387   0.9613   0.9662   0.9779   0.9994   1.0086
  1.0138   1.0242   1.0254   1.0374   1.0506   1.0573   1.0734   1.0791
  1.0912   1.0939   1.1004   1.1042   1.1098   1.1139   1.1254   1.1277
  1.1340   1.1440   1.1516   1.1611   1.1641   1.1809   1.1813   1.1978
  1.2035   1.2068   1.2107   1.2156   1.2319   1.2447   1.2664   1.2710
  1.2751   1.2845   1.2918   1.3097   1.3207   1.3213   1.3299   1.3309
  1.3445   1.3466   1.3559   1.3588   1.3685   1.3741   1.3825   1.3970
  1.3977   1.4201   1.4204   1.4366   1.4446   1.4623   1.4692   1.4738
  1.4862   1.4969   1.5028   1.5222   1.5273   1.5315   1.5370   1.5406
  1.5605   1.5690   1.5728   1.5736   1.5842   1.5951   1.5968   1.6178
  1.6274   1.6277   1.6431   1.6443   1.6487   1.6685   1.6808   1.6849
  1.7043   1.7132   1.7362   1.7492   1.7691   1.7757   1.7788   1.7925
  1.8017   1.8122   1.8132   1.8374   1.8418   1.8560   1.8632   1.8927
  1.9514   1.9658   2.0052   2.0221   2.0712   2.0741   2.1264   2.1288
  2.1515   2.1610   2.1628   2.1663   2.1997   2.2233   2.2739   2.2789
  2.2970   2.3073   2.4084   2.4199   2.4292   2.4352   2.4862   2.4865
  2.4983   2.5039   2.5073   2.5133   2.5443   2.5491   2.5673   2.5814
  2.5952   2.5958   2.6195   2.6293   2.6325   2.6368   2.6508   2.6578
  2.6597   2.6659   2.6887   2.6892   2.7142   2.7163   2.7334   2.7493
  2.7520   2.7728   2.7814   2.7961   2.7965   2.8106   2.8230   2.8367
  2.8474   2.8555   2.8575   2.8649   2.8792   2.9004   2.9029   2.9093
  2.9149   2.9370   2.9419   2.9441   2.9651   2.9770   2.9910   3.0126
  3.0536   3.0541   3.0664   3.0824   3.0954   3.0993   3.1043   3.1110
  3.1224   3.1255   3.1408   3.1527   3.1645   3.1678   3.1760   3.1920
  3.1921   3.1948   3.2041   3.2065   3.2151   3.2194   3.2268   3.2319
  3.2333   3.2382   3.2484   3.2536   3.2546   3.2710   3.2735   3.2810
  3.2914   3.3024   3.3045   3.3065   3.3289   3.3360   3.3497   3.3668
  3.3792   3.3916   3.4053   3.4056   3.4408   3.4443   3.4581   3.4833
  3.4946   3.4989   3.5030   3.5034   3.5195   3.5270   3.5363   3.5449
  3.5744   3.5797   3.5857   3.6013   3.6114   3.6192   3.6381   3.6487
  3.6542   3.6542   3.6679   3.6748   3.6759   3.6869   3.7033   3.7068
  3.7205   3.7260   3.7297   3.7332   3.7376   3.7521   3.7608   3.7635
  3.7825   3.8017   3.8067   3.8192   3.8251   3.8370   3.8475   3.8582
  3.8684   3.8732   3.8896   3.9005   3.9134   3.9261   3.9357   3.9388
  3.9405   3.9513   3.9598   3.9726   3.9925   3.9969   4.0066   4.0088
  4.0322   4.0323   4.0499   4.0522   4.0560   4.0675   4.0808   4.1016
  4.1031   4.1097   4.1194   4.1233   4.1295   4.1371   4.1489   4.1555
  4.1785   4.1813   4.1955   4.1986   4.2131   4.2190   4.2252   4.2303
  4.2459   4.2491   4.2515   4.2552   4.2563   4.2756   4.2762   4.2848
  4.2864   4.3126   4.3284   4.3304   4.3364   4.3522   4.3612   4.3746
  4.3750   4.3901   4.4011   4.4067   4.4206   4.4236   4.4416   4.4506
  4.4622   4.4651   4.4721   4.4825   4.5274   4.5293   4.5368   4.5374
  4.5573   4.5632   4.5787   4.5979   4.6031   4.6074   4.6314   4.6426
  4.6460   4.6572   4.6737   4.7026   4.7151   4.7244   4.7336   4.7341
  4.7424   4.7677   4.7732   4.7792   4.7877   4.8227   4.8244   4.8322
  4.8446   4.8558   4.8625   4.8696   4.8850   4.8878   4.9163   4.9172
  4.9464   4.9552   4.9751   4.9797   4.9898   4.9914   4.9949   5.0083
  5.0120   5.0272   5.0320   5.0388   5.0545   5.0560   5.0945   5.1127
  5.1265   5.1327   5.1494   5.2028   5.2234   5.2237   5.2295   5.2327
  5.2565   5.2779   5.3114   5.3239   5.3806   5.3884   5.4053   5.4147
  5.4302   5.4309   5.4411   5.4547   5.4569   5.4685   5.4767   5.4897
  5.5263   5.5371   5.5436   5.5467   5.5835   5.5880   5.5891   5.5950
  5.6264   5.6357   5.6664   5.6683   5.6926   5.7035   5.7187   5.7196
  5.7364   5.7406   5.7592   5.7641   5.7730   5.7796   5.7891   5.8083
  5.8455   5.8556   5.9278   5.9317  22.9507  22.9743  23.2909  23.3205
 23.3411  23.3589  23.3760  23.3845  23.4051  23.4067
 --------------------------------------------------------------
 
          Ground-State Mulliken Net Atomic Charges

     Atom                 Charge (a.u.)
  ----------------------------------------
      1 C                    -0.126914
      2 H                     0.066893
      3 H                     0.056795
      4 C                    -0.130279
      5 H                     0.067749
      6 H                     0.057087
      7 C                    -0.111796
      8 H                     0.056992
      9 H                     0.053521
     10 C                    -0.098199
     11 H                     0.054894
     12 H                     0.054442
     13 C                    -0.117989
     14 H                     0.057085
     15 H                     0.059718
     16 C                    -0.111796
     17 H                     0.053521
     18 H                     0.056992
     19 C                    -0.130279
     20 H                     0.057087
     21 H                     0.067749
     22 C                    -0.126914
     23 H                     0.056795
     24 H                     0.066893
     25 C                    -0.117989
     26 H                     0.059718
     27 H                     0.057085
     28 C                    -0.098199
     29 H                     0.054442
     30 H                     0.054894
  ----------------------------------------
  Sum of atomic charges =     0.000000

 -----------------------------------------------------------------
                    Cartesian Multipole Moments
 -----------------------------------------------------------------
    Charge (ESU x 10^10)
                -0.0000
    Dipole Moment (Debye)
         X      -0.0000      Y      -0.0000      Z      -0.0386
       Tot       0.0386
    Quadrupole Moments (Debye-Ang)
        XX     -67.8228     XY      -0.2159     YY     -65.2423
        XZ      -0.0000     YZ       0.0000     ZZ     -67.8318
    Octopole Moments (Debye-Ang^2)
       XXX      -0.0000    XXY       0.0000    XYY      -0.0000
       YYY      -0.0000    XXZ      -0.1859    XYZ       1.1777
       YYZ       4.0553    XZZ       0.0000    YZZ      -0.0000
       ZZZ      -1.2446
    Hexadecapole Moments (Debye-Ang^3)
      XXXX    -502.2003   XXXY     -64.3650   XXYY    -407.7649
      XYYY     -71.9374   YYYY   -1944.8084   XXXZ       0.0000
      XXYZ      -0.0000   XYYZ      -0.0000   YYYZ       0.0000
      XXZZ    -163.9882   XYZZ     -21.6049   YYZZ    -413.5548
      XZZZ      -0.0000   YZZZ       0.0000   ZZZZ    -484.7453
 -----------------------------------------------------------------
 Total job time:  558.41s(wall), 558.37s(cpu) 
 Wed Oct  6 18:44:58 2021

        *************************************************************
        *                                                           *
        *  Thank you very much for using Q-Chem.  Have a nice day.  *
        *                                                           *
        *************************************************************


 
User input: 4 of 8 
 
                  Welcome to Q-Chem
     A Quantum Leap Into The Future Of Chemistry


 Q-Chem 5.4 (devel), Q-Chem, Inc., Pleasanton, CA (2021)

 E. Epifanovsky,  A. T. B. Gilbert,  Xintian Feng,  Joonho Lee,  Yuezhi Mao,  
 N. Mardirossian,  P. Pokhilko,  A. White,  M. Wormit,  M. P. Coons,  
 A. L. Dempwolff,  Zhengting Gan,  D. Hait,  P. R. Horn,  L. D. Jacobson,  
 I. Kaliman,  J. Kussmann,  A. W. Lange,  Ka Un Lao,  D. S. Levine,  Jie Liu,  
 S. C. McKenzie,  A. F. Morrison,  K. Nanda,  F. Plasser,  D. R. Rehn,  
 M. L. Vidal,  Zhi-Qiang You,  Ying Zhu,  B. Alam,  B. Albrecht,  
 A. Aldossary,  E. Alguire,  J. H. Andersen,  D. Barton,  K. Begam,  A. Behn,  
 Y. A. Bernard,  E. J. Berquist,  H. Burton,  A. Carreras,  K. Carter-Fenk,  
 R. Chakraborty,  A. D. Chien,  K. D. Closser,  V. Cofer-Shabica,  
 S. Dasgupta,  Jia Deng,  M. de Wergifosse,  M. Diedenhofen,  Hainam Do,  
 S. Ehlert,  Po-Tung Fang,  S. Fatehi,  Qingguo Feng,  T. Friedhoff,  
 J. Gayvert,  Qinghui Ge,  G. Gidofalvi,  M. Goldey,  J. Gomes,  
 C. Gonzalez-Espinoza,  S. Gulania,  A. Gunina,  M. W. D. Hanson-Heine,  
 P. H. P. Harbach,  A. W. Hauser,  M. F. Herbst,  M. Hernandez Vera,  
 M. Hodecker,  Z. C. Holden,  S. Houck,  Xunkun Huang,  Kerwin Hui,  
 B. C. Huynh,  M. Ivanov,  Hyunjun Ji,  Hanjie Jiang,  B. Kaduk,  S. Kaehler,  
 K. Khistyaev,  Jaehoon Kim,  P. Klunzinger,  Z. Koczor-Benda,  
 Joong Hoon Koh,  D. Kosenkov,  L. Koulias,  T. Kowalczyk,  C. M. Krauter,  
 K. Kue,  A. Kunitsa,  T. Kus,  A. Landau,  K. V. Lawler,  D. Lefrancois,  
 S. Lehtola,  Rain Li,  Yi-Pei Li,  Jiashu Liang,  M. Liebenthal,  
 Hung-Hsuan Lin,  You-Sheng Lin,  Fenglai Liu,  Kuan-Yu Liu,  
 M. Loipersberger,  A. Luenser,  A. Manjanath,  P. Manohar,  E. Mansoor,  
 S. F. Manzer,  Shan-Ping Mao,  A. V. Marenich,  T. Markovich,  S. Mason,  
 S. A. Maurer,  P. F. McLaughlin,  M. F. S. J. Menger,  J.-M. Mewes,  
 S. A. Mewes,  P. Morgante,  J. W. Mullinax,  K. J. Oosterbaan,  G. Paran,  
 Alexander C. Paul,  Suranjan K. Paul,  F. Pavosevic,  Zheng Pei,  S. Prager,  
 E. I. Proynov,  E. Ramos,  B. Rana,  A. E. Rask,  A. Rettig,  R. M. Richard,  
 F. Rob,  E. Rossomme,  T. Scheele,  M. Scheurer,  M. Schneider,  
 N. Sergueev,  S. M. Sharada,  W. Skomorowski,  D. W. Small,  C. J. Stein,  
 Yu-Chuan Su,  E. J. Sundstrom,  Zhen Tao,  J. Thirman,  T. Tsuchimochi,  
 N. M. Tubman,  S. P. Veccham,  O. Vydrov,  J. Wenzel,  J. Witte,  A. Yamada,  
 Kun Yao,  S. Yeganeh,  S. R. Yost,  A. Zech,  Igor Ying Zhang,  Xing Zhang,  
 Yu Zhang,  D. Zuev,  A. Aspuru-Guzik,  A. T. Bell,  N. A. Besley,  
 K. B. Bravaya,  B. R. Brooks,  D. Casanova,  Jeng-Da Chai,  S. Coriani,  
 C. J. Cramer,  A. E. DePrince, III,  R. A. DiStasio Jr.,  A. Dreuw,  
 B. D. Dunietz,  T. R. Furlani,  W. A. Goddard III,  S. Grimme,  
 S. Hammes-Schiffer,  T. Head-Gordon,  W. J. Hehre,  Chao-Ping Hsu,  
 T.-C. Jagau,  Yousung Jung,  A. Klamt,  Jing Kong,  D. S. Lambrecht,  
 WanZhen Liang,  N. J. Mayhall,  C. W. McCurdy,  J. B. Neaton,  
 C. Ochsenfeld,  J. A. Parkhill,  R. Peverati,  V. A. Rassolov,  Yihan Shao,  
 L. V. Slipchenko,  T. Stauch,  R. P. Steele,  J. E. Subotnik,  
 A. J. W. Thom,  A. Tkatchenko,  D. G. Truhlar,  T. Van Voorhis,  
 T. A. Wesolowski,  K. B. Whaley,  H. L. Woodcock III,  P. M. Zimmerman,  
 S. Faraji,  P. M. W. Gill,  M. Head-Gordon,  J. M. Herbert,  A. I. Krylov

 Additional authors for Version 5.4.1: 
 S. Kotaru,  Shaozhi Li,  Xiangyuan Li,  F. Matz,  A. Molle,  Haisheng Ren,  
 Yingli Su,  Hung-Yi Tsai,  C. Utku,  Fang Wang

 Contributors to earlier versions of Q-Chem not listed above: 
 R. D. Adamson,  B. Austin,  R. Baer,  J. Baker,  G. J. O. Beran,  
 K. Brandhorst,  S. T. Brown,  E. F. C. Byrd,  A. K. Chakraborty,  
 G. K. L. Chan,  Chun-Min Chang,  Yunqing Chen,  C.-L. Cheng,  
 Siu Hung Chien,  D. M. Chipman,  D. L. Crittenden,  H. Dachsel,  
 R. J. Doerksen,  A. D. Dutoi,  R. G. Edgar,  J. Fosso-Tande,  
 L. Fusti-Molnar,  D. Ghosh,  A. Ghysels,  A. Golubeva-Zadorozhnaya,  
 J. Gonthier,  M. S. Gordon,  S. R. Gwaltney,  G. Hawkins,  J. E. Herr,  
 A. Heyden,  S. Hirata,  E. G. Hohenstein,  G. Kedziora,  F. J. Keil,  
 C. Kelley,  Jihan Kim,  R. A. King,  R. Z. Khaliullin,  P. P. Korambath,  
 W. Kurlancheek,  A. Laurent,  A. M. Lee,  M. S. Lee,  S. V. Levchenko,  
 Ching Yeh Lin,  D. Liotard,  E. Livshits,  R. C. Lochan,  I. Lotan,  
 L. A. Martinez-Martinez,  P. E. Maslen,  N. Nair,  D. P. O'Neill,  
 D. Neuhauser,  E. Neuscamman,  C. M. Oana,  R. Olivares-Amaya,  R. Olson,  
 T. M. Perrine,  B. Peters,  P. A. Pieniazek,  A. Prociuk,  Y. M. Rhee,  
 J. Ritchie,  M. A. Rohrdanz,  E. Rosta,  N. J. Russ,  H. F. Schaefer III,  
 M. W. Schmidt,  N. E. Schultz,  S. Sharma,  N. Shenvi,  C. D. Sherrill,  
 A. C. Simmonett,  A. Sodt,  T. Stein,  D. Stuck,  K. S. Thanthiriwatte,  
 V. Vanovschi,  L. Vogt,  Tao Wang,  A. Warshel,  M. A. Watson,  
 C. F. Williams,  Q. Wu,  X. Xu,  Jun Yang,  W. Zhang,  Yan Zhao

 Please cite Q-Chem as follows:
 Y. Shao et al., Mol. Phys. 113, 184-215 (2015)
 DOI: 10.1080/00268976.2014.952696

 Q-Chem 5.4.1 for Intel X86 EM64T Linux

 Parts of Q-Chem use Armadillo 9.900.5 (Nocturnal Misbehaviour).
 http://arma.sourceforge.net/

 Q-Chem begins on Wed Oct  6 18:44:58 2021  

 Host: s166
0

     Scratch files written to /tmp1/friede/qchem6290//
 Processing $rem in /home/mewes/SOFTWARE/QC54_TRUNK4INTEL_MM/config/preferences:
 Processing $rem in /home/friede/.qchemrc:
The previous job contains 0 fragments, simply inherited here

 Checking the input file for inconsistencies... 	...done.

--------------------------------------------------------------
User input:
--------------------------------------------------------------

$molecule
  read
$end

$rem
jobtype               sp
basis                 def2-tzvpp
method                lc-wPBE08
omega                 250
scf_guess             read
thresh                11
scf_convergence       8
scf_max_cycles        250
geom_opt_max_cycles   250
geom_opt_dmax         140
sym_ignore            true
mem_static          1000
mem_total           24000
threads 1 
$end

--------------------------------------------------------------
 ----------------------------------------------------------------
             Standard Nuclear Orientation (Angstroms)
    I     Atom           X                Y                Z
 ----------------------------------------------------------------
    1      C      -0.4354916000    -1.9360639000     1.2377784000
    2      H      -0.5698884000    -2.7925686000     1.8971432000
    3      H      -0.6286774000    -1.0447974000     1.8322650000
    4      C       0.9946671000    -1.9405864000     0.6382817000
    5      H       1.5348830000    -2.8280297000     0.9665746000
    6      H       1.5790637000    -1.0776556000     0.9531025000
    7      C       0.8018003000    -1.9845226000    -0.8854153000
    8      H       1.6231346000    -2.4798419000    -1.4008877000
    9      H       0.7250892000    -0.9707978000    -1.2839629000
   10      C      -0.5426168000    -2.6890289000    -1.0559617000
   11      H      -0.4291083000    -3.7563000000    -0.8512037000
   12      H      -0.9652820000    -2.5812023000    -2.0538815000
   13      C      -1.3909704000    -2.0367076000     0.0348805000
   14      H      -2.3009781000    -2.5882137000     0.2652200000
   15      H      -1.6855103000    -1.0385508000    -0.2939332000
   16      C      -0.8018003000     1.9845226000    -0.8854153000
   17      H      -0.7250892000     0.9707978000    -1.2839629000
   18      H      -1.6231346000     2.4798419000    -1.4008877000
   19      C      -0.9946671000     1.9405864000     0.6382817000
   20      H      -1.5790637000     1.0776556000     0.9531025000
   21      H      -1.5348830000     2.8280297000     0.9665746000
   22      C       0.4354916000     1.9360639000     1.2377784000
   23      H       0.6286774000     1.0447974000     1.8322650000
   24      H       0.5698884000     2.7925686000     1.8971432000
   25      C       1.3909704000     2.0367076000     0.0348805000
   26      H       1.6855103000     1.0385508000    -0.2939332000
   27      H       2.3009781000     2.5882137000     0.2652200000
   28      C       0.5426168000     2.6890289000    -1.0559617000
   29      H       0.9652820000     2.5812023000    -2.0538815000
   30      H       0.4291083000     3.7563000000    -0.8512037000
 ----------------------------------------------------------------
 Nuclear Repulsion Energy =         562.01843918 hartrees
 There are       40 alpha and       40 beta electrons
 Requested basis set is def2-TZVPP
 There are 230 shells and 590 basis functions

 Total QAlloc Memory Limit  24000 MB
 Mega-Array Size       978 MB
 MEM_STATIC part      1000 MB
 A cutoff of  1.0D-11 yielded  21275 shell pairs
 There are    134023 function pairs (    166223 Cartesian)
 Smallest overlap matrix eigenvalue = 6.51E-05

 Scale SEOQF with 1.000000e-01/1.000000e-01/1.000000e-01

 Standard Electronic Orientation quadrupole field applied
 Nucleus-field energy     =     0.0000000216 hartrees
 Guess MOs from SCF MO coefficient file

 -----------------------------------------------------------------------
  General SCF calculation program by
  Eric Jon Sundstrom, Paul Horn, Yuezhi Mao, Dmitri Zuev, Alec White,
  David Stuck, Shaama M.S., Shane Yost, Joonho Lee, David Small,
  Daniel Levine, Susi Lehtola, Hugh Burton, Evgeny Epifanovsky,
  Bang C. Huynh
 -----------------------------------------------------------------------
 Exchange:  wPBE + LR-HF      Correlation:  PBE
 Using SG-1 standard quadrature grid
 A restricted SCF calculation will be
 performed using DIIS
 SCF converges when DIIS error is below 1.0e-08
 ---------------------------------------
  Cycle       Energy         DIIS error
 ---------------------------------------
    1    -392.8648184163      7.57e-05  
    2    -392.8652020304      1.30e-05  
    3    -392.8652176252      4.96e-06  
    4    -392.8652186048      2.29e-06  
    5    -392.8652188402      2.39e-07  
    6    -392.8652188412      5.41e-08  
    7    -392.8652188441      1.58e-08  
    8    -392.8652188435      7.52e-09  Convergence criterion met
 ---------------------------------------
 SCF time:   CPU 558.08s  wall 558.00s 
 SCF   energy in the final basis set =     -392.8652188435
 Total energy in the final basis set =     -392.8652188435
 
 --------------------------------------------------------------
 
                    Orbital Energies (a.u.)
 --------------------------------------------------------------
 
 Alpha MOs
 -- Occupied --
-10.0110 -10.0110 -10.0109 -10.0109 -10.0108 -10.0108 -10.0107 -10.0107
-10.0105 -10.0105  -0.9059  -0.9035  -0.7806  -0.7801  -0.7774  -0.7769
 -0.6484  -0.6431  -0.6354  -0.6352  -0.5694  -0.5591  -0.5583  -0.5515
 -0.4983  -0.4970  -0.4849  -0.4818  -0.4129  -0.4128  -0.4113  -0.4098
 -0.4097  -0.4087  -0.4062  -0.4055  -0.4031  -0.3901  -0.3864  -0.3850
 -- Virtual --
  0.0977   0.1154   0.1207   0.1327   0.1347   0.1530   0.1594   0.1625
  0.1665   0.1773   0.1851   0.1873   0.1877   0.1909   0.1932   0.2186
  0.2202   0.2282   0.2306   0.2335   0.2407   0.2463   0.2528   0.2699
  0.2735   0.2737   0.2795   0.2907   0.2922   0.3012   0.3045   0.3213
  0.3261   0.3371   0.3395   0.3423   0.3559   0.3659   0.3687   0.3809
  0.3922   0.4345   0.4363   0.4437   0.4530   0.4596   0.4661   0.4685
  0.4779   0.4807   0.4815   0.4864   0.4919   0.4971   0.4980   0.5000
  0.5031   0.5052   0.5076   0.5101   0.5154   0.5162   0.5214   0.5257
  0.5306   0.5327   0.5439   0.5525   0.5527   0.5664   0.5693   0.5790
  0.5889   0.5927   0.5964   0.6050   0.6073   0.6308   0.6346   0.6526
  0.6548   0.6843   0.6854   0.6990   0.7112   0.7113   0.7362   0.7384
  0.7756   0.7893   0.8105   0.8122   0.8437   0.8653   0.8710   0.8758
  0.8964   0.9016   0.9109   0.9308   0.9323   0.9354   0.9411   0.9443
  0.9532   0.9552   0.9558   0.9788   0.9845   0.9955   1.0177   1.0269
  1.0323   1.0434   1.0434   1.0550   1.0686   1.0760   1.0917   1.0977
  1.1099   1.1124   1.1186   1.1223   1.1275   1.1323   1.1443   1.1471
  1.1530   1.1631   1.1701   1.1801   1.1829   1.1993   1.1999   1.2165
  1.2218   1.2254   1.2296   1.2348   1.2511   1.2642   1.2849   1.2901
  1.2938   1.3035   1.3108   1.3286   1.3393   1.3401   1.3493   1.3503
  1.3633   1.3660   1.3751   1.3782   1.3879   1.3933   1.4022   1.4166
  1.4168   1.4393   1.4400   1.4556   1.4641   1.4818   1.4884   1.4929
  1.5065   1.5170   1.5228   1.5420   1.5471   1.5518   1.5570   1.5603
  1.5803   1.5893   1.5933   1.5934   1.6043   1.6153   1.6170   1.6381
  1.6479   1.6480   1.6632   1.6643   1.6693   1.6888   1.7013   1.7047
  1.7237   1.7320   1.7565   1.7687   1.7892   1.7949   1.7989   1.8125
  1.8220   1.8321   1.8334   1.8572   1.8623   1.8764   1.8825   1.9125
  1.9718   1.9857   2.0262   2.0436   2.0930   2.0959   2.1490   2.1512
  2.1741   2.1836   2.1854   2.1886   2.2222   2.2454   2.2969   2.3021
  2.3205   2.3306   2.4314   2.4431   2.4522   2.4584   2.5100   2.5103
  2.5215   2.5270   2.5306   2.5363   2.5677   2.5723   2.5905   2.6043
  2.6180   2.6193   2.6433   2.6525   2.6562   2.6604   2.6744   2.6815
  2.6834   2.6896   2.7123   2.7128   2.7378   2.7398   2.7570   2.7724
  2.7753   2.7964   2.8046   2.8190   2.8200   2.8344   2.8463   2.8600
  2.8706   2.8795   2.8811   2.8885   2.9023   2.9231   2.9256   2.9324
  2.9382   2.9604   2.9653   2.9674   2.9885   3.0003   3.0142   3.0359
  3.0770   3.0775   3.0896   3.1056   3.1187   3.1226   3.1276   3.1341
  3.1454   3.1485   3.1643   3.1762   3.1880   3.1912   3.1999   3.2155
  3.2157   3.2184   3.2275   3.2301   3.2384   3.2431   3.2503   3.2554
  3.2569   3.2617   3.2718   3.2771   3.2779   3.2947   3.2970   3.3045
  3.3148   3.3255   3.3277   3.3302   3.3526   3.3594   3.3731   3.3902
  3.4026   3.4150   3.4289   3.4291   3.4642   3.4677   3.4817   3.5067
  3.5178   3.5222   3.5262   3.5266   3.5429   3.5502   3.5597   3.5683
  3.5976   3.6032   3.6090   3.6250   3.6346   3.6425   3.6617   3.6723
  3.6775   3.6778   3.6912   3.6984   3.6996   3.7103   3.7265   3.7301
  3.7439   3.7497   3.7529   3.7562   3.7609   3.7758   3.7843   3.7870
  3.8061   3.8249   3.8302   3.8423   3.8485   3.8602   3.8708   3.8824
  3.8917   3.8964   3.9132   3.9241   3.9371   3.9494   3.9589   3.9625
  3.9641   3.9749   3.9828   3.9962   4.0160   4.0204   4.0300   4.0322
  4.0557   4.0559   4.0733   4.0758   4.0796   4.0909   4.1041   4.1249
  4.1265   4.1332   4.1430   4.1467   4.1526   4.1603   4.1723   4.1789
  4.2015   4.2044   4.2188   4.2220   4.2362   4.2422   4.2484   4.2533
  4.2690   4.2722   4.2744   4.2785   4.2795   4.2988   4.2995   4.3080
  4.3098   4.3358   4.3518   4.3539   4.3597   4.3753   4.3842   4.3975
  4.3983   4.4136   4.4244   4.4303   4.4438   4.4468   4.4647   4.4740
  4.4854   4.4886   4.4954   4.5058   4.5507   4.5525   4.5601   4.5608
  4.5808   4.5866   4.6023   4.6213   4.6265   4.6308   4.6550   4.6660
  4.6694   4.6808   4.6974   4.7263   4.7388   4.7479   4.7573   4.7578
  4.7660   4.7917   4.7971   4.8031   4.8117   4.8465   4.8483   4.8559
  4.8686   4.8798   4.8864   4.8936   4.9090   4.9118   4.9405   4.9413
  4.9704   4.9793   4.9992   5.0039   5.0140   5.0156   5.0192   5.0326
  5.0363   5.0514   5.0560   5.0629   5.0791   5.0807   5.1186   5.1369
  5.1507   5.1569   5.1739   5.2273   5.2475   5.2478   5.2538   5.2570
  5.2808   5.3020   5.3355   5.3480   5.4049   5.4128   5.4296   5.4390
  5.4544   5.4553   5.4652   5.4789   5.4810   5.4926   5.5010   5.5140
  5.5507   5.5617   5.5682   5.5712   5.6080   5.6126   5.6138   5.6196
  5.6509   5.6603   5.6908   5.6929   5.7172   5.7279   5.7433   5.7443
  5.7612   5.7650   5.7835   5.7886   5.7977   5.8040   5.8136   5.8329
  5.8700   5.8802   5.9525   5.9565  22.9787  23.0024  23.3190  23.3487
 23.3692  23.3870  23.4040  23.4126  23.4331  23.4348
 --------------------------------------------------------------
 
          Ground-State Mulliken Net Atomic Charges

     Atom                 Charge (a.u.)
  ----------------------------------------
      1 C                    -0.135733
      2 H                     0.072142
      3 H                     0.059930
      4 C                    -0.140673
      5 H                     0.073469
      6 H                     0.060574
      7 C                    -0.119701
      8 H                     0.062235
      9 H                     0.056704
     10 C                    -0.107356
     11 H                     0.060599
     12 H                     0.059170
     13 C                    -0.127073
     14 H                     0.062345
     15 H                     0.063368
     16 C                    -0.119701
     17 H                     0.056704
     18 H                     0.062235
     19 C                    -0.140673
     20 H                     0.060574
     21 H                     0.073469
     22 C                    -0.135733
     23 H                     0.059930
     24 H                     0.072142
     25 C                    -0.127073
     26 H                     0.063368
     27 H                     0.062345
     28 C                    -0.107356
     29 H                     0.059170
     30 H                     0.060599
  ----------------------------------------
  Sum of atomic charges =     0.000000

 -----------------------------------------------------------------
                    Cartesian Multipole Moments
 -----------------------------------------------------------------
    Charge (ESU x 10^10)
                -0.0000
    Dipole Moment (Debye)
         X      -0.0000      Y      -0.0000      Z      -0.0361
       Tot       0.0361
    Quadrupole Moments (Debye-Ang)
        XX     -67.6478     XY      -0.2181     YY     -65.0717
        XZ      -0.0000     YZ      -0.0000     ZZ     -67.6590
    Octopole Moments (Debye-Ang^2)
       XXX      -0.0000    XXY       0.0000    XYY       0.0000
       YYY      -0.0000    XXZ      -0.1850    XYZ       1.1870
       YYZ       4.0846    XZZ       0.0000    YZZ       0.0000
       ZZZ      -1.2477
    Hexadecapole Moments (Debye-Ang^3)
      XXXX    -500.3420   XXXY     -64.1900   XXYY    -406.3947
      XYYY     -71.8389   YYYY   -1939.1056   XXXZ      -0.0000
      XXYZ      -0.0000   XYYZ      -0.0000   YYYZ       0.0000
      XXZZ    -163.3834   XYZZ     -21.5361   YYZZ    -412.2223
      XZZZ      -0.0000   YZZZ      -0.0000   ZZZZ    -482.9900
 -----------------------------------------------------------------
 Total job time:  558.24s(wall), 558.62s(cpu) 
 Wed Oct  6 18:54:16 2021

        *************************************************************
        *                                                           *
        *  Thank you very much for using Q-Chem.  Have a nice day.  *
        *                                                           *
        *************************************************************


 
User input: 5 of 8 
 
                  Welcome to Q-Chem
     A Quantum Leap Into The Future Of Chemistry


 Q-Chem 5.4 (devel), Q-Chem, Inc., Pleasanton, CA (2021)

 E. Epifanovsky,  A. T. B. Gilbert,  Xintian Feng,  Joonho Lee,  Yuezhi Mao,  
 N. Mardirossian,  P. Pokhilko,  A. White,  M. Wormit,  M. P. Coons,  
 A. L. Dempwolff,  Zhengting Gan,  D. Hait,  P. R. Horn,  L. D. Jacobson,  
 I. Kaliman,  J. Kussmann,  A. W. Lange,  Ka Un Lao,  D. S. Levine,  Jie Liu,  
 S. C. McKenzie,  A. F. Morrison,  K. Nanda,  F. Plasser,  D. R. Rehn,  
 M. L. Vidal,  Zhi-Qiang You,  Ying Zhu,  B. Alam,  B. Albrecht,  
 A. Aldossary,  E. Alguire,  J. H. Andersen,  D. Barton,  K. Begam,  A. Behn,  
 Y. A. Bernard,  E. J. Berquist,  H. Burton,  A. Carreras,  K. Carter-Fenk,  
 R. Chakraborty,  A. D. Chien,  K. D. Closser,  V. Cofer-Shabica,  
 S. Dasgupta,  Jia Deng,  M. de Wergifosse,  M. Diedenhofen,  Hainam Do,  
 S. Ehlert,  Po-Tung Fang,  S. Fatehi,  Qingguo Feng,  T. Friedhoff,  
 J. Gayvert,  Qinghui Ge,  G. Gidofalvi,  M. Goldey,  J. Gomes,  
 C. Gonzalez-Espinoza,  S. Gulania,  A. Gunina,  M. W. D. Hanson-Heine,  
 P. H. P. Harbach,  A. W. Hauser,  M. F. Herbst,  M. Hernandez Vera,  
 M. Hodecker,  Z. C. Holden,  S. Houck,  Xunkun Huang,  Kerwin Hui,  
 B. C. Huynh,  M. Ivanov,  Hyunjun Ji,  Hanjie Jiang,  B. Kaduk,  S. Kaehler,  
 K. Khistyaev,  Jaehoon Kim,  P. Klunzinger,  Z. Koczor-Benda,  
 Joong Hoon Koh,  D. Kosenkov,  L. Koulias,  T. Kowalczyk,  C. M. Krauter,  
 K. Kue,  A. Kunitsa,  T. Kus,  A. Landau,  K. V. Lawler,  D. Lefrancois,  
 S. Lehtola,  Rain Li,  Yi-Pei Li,  Jiashu Liang,  M. Liebenthal,  
 Hung-Hsuan Lin,  You-Sheng Lin,  Fenglai Liu,  Kuan-Yu Liu,  
 M. Loipersberger,  A. Luenser,  A. Manjanath,  P. Manohar,  E. Mansoor,  
 S. F. Manzer,  Shan-Ping Mao,  A. V. Marenich,  T. Markovich,  S. Mason,  
 S. A. Maurer,  P. F. McLaughlin,  M. F. S. J. Menger,  J.-M. Mewes,  
 S. A. Mewes,  P. Morgante,  J. W. Mullinax,  K. J. Oosterbaan,  G. Paran,  
 Alexander C. Paul,  Suranjan K. Paul,  F. Pavosevic,  Zheng Pei,  S. Prager,  
 E. I. Proynov,  E. Ramos,  B. Rana,  A. E. Rask,  A. Rettig,  R. M. Richard,  
 F. Rob,  E. Rossomme,  T. Scheele,  M. Scheurer,  M. Schneider,  
 N. Sergueev,  S. M. Sharada,  W. Skomorowski,  D. W. Small,  C. J. Stein,  
 Yu-Chuan Su,  E. J. Sundstrom,  Zhen Tao,  J. Thirman,  T. Tsuchimochi,  
 N. M. Tubman,  S. P. Veccham,  O. Vydrov,  J. Wenzel,  J. Witte,  A. Yamada,  
 Kun Yao,  S. Yeganeh,  S. R. Yost,  A. Zech,  Igor Ying Zhang,  Xing Zhang,  
 Yu Zhang,  D. Zuev,  A. Aspuru-Guzik,  A. T. Bell,  N. A. Besley,  
 K. B. Bravaya,  B. R. Brooks,  D. Casanova,  Jeng-Da Chai,  S. Coriani,  
 C. J. Cramer,  A. E. DePrince, III,  R. A. DiStasio Jr.,  A. Dreuw,  
 B. D. Dunietz,  T. R. Furlani,  W. A. Goddard III,  S. Grimme,  
 S. Hammes-Schiffer,  T. Head-Gordon,  W. J. Hehre,  Chao-Ping Hsu,  
 T.-C. Jagau,  Yousung Jung,  A. Klamt,  Jing Kong,  D. S. Lambrecht,  
 WanZhen Liang,  N. J. Mayhall,  C. W. McCurdy,  J. B. Neaton,  
 C. Ochsenfeld,  J. A. Parkhill,  R. Peverati,  V. A. Rassolov,  Yihan Shao,  
 L. V. Slipchenko,  T. Stauch,  R. P. Steele,  J. E. Subotnik,  
 A. J. W. Thom,  A. Tkatchenko,  D. G. Truhlar,  T. Van Voorhis,  
 T. A. Wesolowski,  K. B. Whaley,  H. L. Woodcock III,  P. M. Zimmerman,  
 S. Faraji,  P. M. W. Gill,  M. Head-Gordon,  J. M. Herbert,  A. I. Krylov

 Additional authors for Version 5.4.1: 
 S. Kotaru,  Shaozhi Li,  Xiangyuan Li,  F. Matz,  A. Molle,  Haisheng Ren,  
 Yingli Su,  Hung-Yi Tsai,  C. Utku,  Fang Wang

 Contributors to earlier versions of Q-Chem not listed above: 
 R. D. Adamson,  B. Austin,  R. Baer,  J. Baker,  G. J. O. Beran,  
 K. Brandhorst,  S. T. Brown,  E. F. C. Byrd,  A. K. Chakraborty,  
 G. K. L. Chan,  Chun-Min Chang,  Yunqing Chen,  C.-L. Cheng,  
[...]
       YYY      -0.0000    XXZ      -0.1875    XYZ       1.2172
       YYZ       4.1983    XZZ      -0.0000    YZZ      -0.0000
       ZZZ      -1.2753
    Hexadecapole Moments (Debye-Ang^3)
      XXXX    -494.1745   XXXY     -63.6218   XXYY    -401.8809
      XYYY     -71.5195   YYYY   -1919.9659   XXXZ       0.0000
      XXYZ       0.0000   XYYZ      -0.0000   YYYZ       0.0000
      XXZZ    -161.3672   XYZZ     -21.3168   YYZZ    -407.8430
      XZZZ      -0.0000   YZZZ       0.0000   ZZZZ    -477.1208
 -----------------------------------------------------------------
 Total job time:  505.17s(wall), 505.40s(cpu) 
 Wed Oct  6 19:21:15 2021

        *************************************************************
        *                                                           *
        *  Thank you very much for using Q-Chem.  Have a nice day.  *
        *                                                           *
        *************************************************************


 
User input: 8 of 8 
 
                  Welcome to Q-Chem
     A Quantum Leap Into The Future Of Chemistry


 Q-Chem 5.4 (devel), Q-Chem, Inc., Pleasanton, CA (2021)

 E. Epifanovsky,  A. T. B. Gilbert,  Xintian Feng,  Joonho Lee,  Yuezhi Mao,  
 N. Mardirossian,  P. Pokhilko,  A. White,  M. Wormit,  M. P. Coons,  
 A. L. Dempwolff,  Zhengting Gan,  D. Hait,  P. R. Horn,  L. D. Jacobson,  
 I. Kaliman,  J. Kussmann,  A. W. Lange,  Ka Un Lao,  D. S. Levine,  Jie Liu,  
 S. C. McKenzie,  A. F. Morrison,  K. Nanda,  F. Plasser,  D. R. Rehn,  
 M. L. Vidal,  Zhi-Qiang You,  Ying Zhu,  B. Alam,  B. Albrecht,  
 A. Aldossary,  E. Alguire,  J. H. Andersen,  D. Barton,  K. Begam,  A. Behn,  
 Y. A. Bernard,  E. J. Berquist,  H. Burton,  A. Carreras,  K. Carter-Fenk,  
 R. Chakraborty,  A. D. Chien,  K. D. Closser,  V. Cofer-Shabica,  
 S. Dasgupta,  Jia Deng,  M. de Wergifosse,  M. Diedenhofen,  Hainam Do,  
 S. Ehlert,  Po-Tung Fang,  S. Fatehi,  Qingguo Feng,  T. Friedhoff,  
 J. Gayvert,  Qinghui Ge,  G. Gidofalvi,  M. Goldey,  J. Gomes,  
 C. Gonzalez-Espinoza,  S. Gulania,  A. Gunina,  M. W. D. Hanson-Heine,  
 P. H. P. Harbach,  A. W. Hauser,  M. F. Herbst,  M. Hernandez Vera,  
 M. Hodecker,  Z. C. Holden,  S. Houck,  Xunkun Huang,  Kerwin Hui,  
 B. C. Huynh,  M. Ivanov,  Hyunjun Ji,  Hanjie Jiang,  B. Kaduk,  S. Kaehler,  
 K. Khistyaev,  Jaehoon Kim,  P. Klunzinger,  Z. Koczor-Benda,  
 Joong Hoon Koh,  D. Kosenkov,  L. Koulias,  T. Kowalczyk,  C. M. Krauter,  
 K. Kue,  A. Kunitsa,  T. Kus,  A. Landau,  K. V. Lawler,  D. Lefrancois,  
 S. Lehtola,  Rain Li,  Yi-Pei Li,  Jiashu Liang,  M. Liebenthal,  
 Hung-Hsuan Lin,  You-Sheng Lin,  Fenglai Liu,  Kuan-Yu Liu,  
 M. Loipersberger,  A. Luenser,  A. Manjanath,  P. Manohar,  E. Mansoor,  
 S. F. Manzer,  Shan-Ping Mao,  A. V. Marenich,  T. Markovich,  S. Mason,  
 S. A. Maurer,  P. F. McLaughlin,  M. F. S. J. Menger,  J.-M. Mewes,  
 S. A. Mewes,  P. Morgante,  J. W. Mullinax,  K. J. Oosterbaan,  G. Paran,  
 Alexander C. Paul,  Suranjan K. Paul,  F. Pavosevic,  Zheng Pei,  S. Prager,  
 E. I. Proynov,  E. Ramos,  B. Rana,  A. E. Rask,  A. Rettig,  R. M. Richard,  
 F. Rob,  E. Rossomme,  T. Scheele,  M. Scheurer,  M. Schneider,  
 N. Sergueev,  S. M. Sharada,  W. Skomorowski,  D. W. Small,  C. J. Stein,  
 Yu-Chuan Su,  E. J. Sundstrom,  Zhen Tao,  J. Thirman,  T. Tsuchimochi,  
 N. M. Tubman,  S. P. Veccham,  O. Vydrov,  J. Wenzel,  J. Witte,  A. Yamada,  
 Kun Yao,  S. Yeganeh,  S. R. Yost,  A. Zech,  Igor Ying Zhang,  Xing Zhang,  
 Yu Zhang,  D. Zuev,  A. Aspuru-Guzik,  A. T. Bell,  N. A. Besley,  
 K. B. Bravaya,  B. R. Brooks,  D. Casanova,  Jeng-Da Chai,  S. Coriani,  
 C. J. Cramer,  A. E. DePrince, III,  R. A. DiStasio Jr.,  A. Dreuw,  
 B. D. Dunietz,  T. R. Furlani,  W. A. Goddard III,  S. Grimme,  
 S. Hammes-Schiffer,  T. Head-Gordon,  W. J. Hehre,  Chao-Ping Hsu,  
 T.-C. Jagau,  Yousung Jung,  A. Klamt,  Jing Kong,  D. S. Lambrecht,  
 WanZhen Liang,  N. J. Mayhall,  C. W. McCurdy,  J. B. Neaton,  
 C. Ochsenfeld,  J. A. Parkhill,  R. Peverati,  V. A. Rassolov,  Yihan Shao,  
 L. V. Slipchenko,  T. Stauch,  R. P. Steele,  J. E. Subotnik,  
 A. J. W. Thom,  A. Tkatchenko,  D. G. Truhlar,  T. Van Voorhis,  
 T. A. Wesolowski,  K. B. Whaley,  H. L. Woodcock III,  P. M. Zimmerman,  
 S. Faraji,  P. M. W. Gill,  M. Head-Gordon,  J. M. Herbert,  A. I. Krylov

 Additional authors for Version 5.4.1: 
 S. Kotaru,  Shaozhi Li,  Xiangyuan Li,  F. Matz,  A. Molle,  Haisheng Ren,  
 Yingli Su,  Hung-Yi Tsai,  C. Utku,  Fang Wang

 Contributors to earlier versions of Q-Chem not listed above: 
 R. D. Adamson,  B. Austin,  R. Baer,  J. Baker,  G. J. O. Beran,  
 K. Brandhorst,  S. T. Brown,  E. F. C. Byrd,  A. K. Chakraborty,  
 G. K. L. Chan,  Chun-Min Chang,  Yunqing Chen,  C.-L. Cheng,  
 Siu Hung Chien,  D. M. Chipman,  D. L. Crittenden,  H. Dachsel,  
 R. J. Doerksen,  A. D. Dutoi,  R. G. Edgar,  J. Fosso-Tande,  
 L. Fusti-Molnar,  D. Ghosh,  A. Ghysels,  A. Golubeva-Zadorozhnaya,  
 J. Gonthier,  M. S. Gordon,  S. R. Gwaltney,  G. Hawkins,  J. E. Herr,  
 A. Heyden,  S. Hirata,  E. G. Hohenstein,  G. Kedziora,  F. J. Keil,  
 C. Kelley,  Jihan Kim,  R. A. King,  R. Z. Khaliullin,  P. P. Korambath,  
 W. Kurlancheek,  A. Laurent,  A. M. Lee,  M. S. Lee,  S. V. Levchenko,  
 Ching Yeh Lin,  D. Liotard,  E. Livshits,  R. C. Lochan,  I. Lotan,  
 L. A. Martinez-Martinez,  P. E. Maslen,  N. Nair,  D. P. O'Neill,  
 D. Neuhauser,  E. Neuscamman,  C. M. Oana,  R. Olivares-Amaya,  R. Olson,  
 T. M. Perrine,  B. Peters,  P. A. Pieniazek,  A. Prociuk,  Y. M. Rhee,  
 J. Ritchie,  M. A. Rohrdanz,  E. Rosta,  N. J. Russ,  H. F. Schaefer III,  
 M. W. Schmidt,  N. E. Schultz,  S. Sharma,  N. Shenvi,  C. D. Sherrill,  
 A. C. Simmonett,  A. Sodt,  T. Stein,  D. Stuck,  K. S. Thanthiriwatte,  
 V. Vanovschi,  L. Vogt,  Tao Wang,  A. Warshel,  M. A. Watson,  
 C. F. Williams,  Q. Wu,  X. Xu,  Jun Yang,  W. Zhang,  Yan Zhao

 Please cite Q-Chem as follows:
 Y. Shao et al., Mol. Phys. 113, 184-215 (2015)
 DOI: 10.1080/00268976.2014.952696

 Q-Chem 5.4.1 for Intel X86 EM64T Linux

 Parts of Q-Chem use Armadillo 9.900.5 (Nocturnal Misbehaviour).
 http://arma.sourceforge.net/

 Q-Chem begins on Wed Oct  6 19:21:15 2021  

 Host: s166
0

     Scratch files written to /tmp1/friede/qchem6290//
 Processing $rem in /home/mewes/SOFTWARE/QC54_TRUNK4INTEL_MM/config/preferences:
 Processing $rem in /home/friede/.qchemrc:
The previous job contains 0 fragments, simply inherited here

 Checking the input file for inconsistencies... 	...done.

--------------------------------------------------------------
User input:
--------------------------------------------------------------

$molecule
  read
$end

$rem
jobtype               sp
basis                 def2-tzvpp
method                lc-wPBE08
omega                 450
scf_guess             read
thresh                11
scf_convergence       8
scf_max_cycles        250
geom_opt_max_cycles   250
geom_opt_dmax         140
sym_ignore            true
mem_static          1000
mem_total           24000
threads 1 
$end
--------------------------------------------------------------
 ----------------------------------------------------------------
             Standard Nuclear Orientation (Angstroms)
    I     Atom           X                Y                Z
 ----------------------------------------------------------------
    1      C      -0.4354916000    -1.9360639000     1.2377784000
    2      H      -0.5698884000    -2.7925686000     1.8971432000
    3      H      -0.6286774000    -1.0447974000     1.8322650000
    4      C       0.9946671000    -1.9405864000     0.6382817000
    5      H       1.5348830000    -2.8280297000     0.9665746000
    6      H       1.5790637000    -1.0776556000     0.9531025000
    7      C       0.8018003000    -1.9845226000    -0.8854153000
    8      H       1.6231346000    -2.4798419000    -1.4008877000
    9      H       0.7250892000    -0.9707978000    -1.2839629000
   10      C      -0.5426168000    -2.6890289000    -1.0559617000
   11      H      -0.4291083000    -3.7563000000    -0.8512037000
   12      H      -0.9652820000    -2.5812023000    -2.0538815000
   13      C      -1.3909704000    -2.0367076000     0.0348805000
   14      H      -2.3009781000    -2.5882137000     0.2652200000
   15      H      -1.6855103000    -1.0385508000    -0.2939332000
   16      C      -0.8018003000     1.9845226000    -0.8854153000
   17      H      -0.7250892000     0.9707978000    -1.2839629000
   18      H      -1.6231346000     2.4798419000    -1.4008877000
   19      C      -0.9946671000     1.9405864000     0.6382817000
   20      H      -1.5790637000     1.0776556000     0.9531025000
   21      H      -1.5348830000     2.8280297000     0.9665746000
   22      C       0.4354916000     1.9360639000     1.2377784000
   23      H       0.6286774000     1.0447974000     1.8322650000
   24      H       0.5698884000     2.7925686000     1.8971432000
   25      C       1.3909704000     2.0367076000     0.0348805000
   26      H       1.6855103000     1.0385508000    -0.2939332000
   27      H       2.3009781000     2.5882137000     0.2652200000
   28      C       0.5426168000     2.6890289000    -1.0559617000
   29      H       0.9652820000     2.5812023000    -2.0538815000
   30      H       0.4291083000     3.7563000000    -0.8512037000
 ----------------------------------------------------------------
 Nuclear Repulsion Energy =         562.01843918 hartrees
 There are       40 alpha and       40 beta electrons
 Requested basis set is def2-TZVPP
 There are 230 shells and 590 basis functions

 Total QAlloc Memory Limit  24000 MB
 Mega-Array Size       978 MB
 MEM_STATIC part      1000 MB
 A cutoff of  1.0D-11 yielded  21275 shell pairs
 There are    134023 function pairs (    166223 Cartesian)
 Smallest overlap matrix eigenvalue = 6.51E-05

 Scale SEOQF with 1.000000e-01/1.000000e-01/1.000000e-01

 Standard Electronic Orientation quadrupole field applied
 Nucleus-field energy     =     0.0000000216 hartrees
 Guess MOs from SCF MO coefficient file

 -----------------------------------------------------------------------
  General SCF calculation program by
  Eric Jon Sundstrom, Paul Horn, Yuezhi Mao, Dmitri Zuev, Alec White,
  David Stuck, Shaama M.S., Shane Yost, Joonho Lee, David Small,
  Daniel Levine, Susi Lehtola, Hugh Burton, Evgeny Epifanovsky,
  Bang C. Huynh
 -----------------------------------------------------------------------
 Exchange:  wPBE + LR-HF      Correlation:  PBE
 Using SG-1 standard quadrature grid
 A restricted SCF calculation will be
 performed using DIIS
 SCF converges when DIIS error is below 1.0e-08
 ---------------------------------------
  Cycle       Energy         DIIS error
 ---------------------------------------
    1    -393.0148414381      7.79e-05  
    2    -393.0150946571      1.15e-05  
    3    -393.0151039307      1.84e-06  
    4    -393.0151041996      5.42e-07  
    5    -393.0151042133      2.03e-07  
    6    -393.0151042148      4.81e-08  
    7    -393.0151042165      1.04e-08  
    8    -393.0151042179      3.05e-09  Convergence criterion met
 ---------------------------------------
 SCF time:   CPU 497.68s  wall 497.00s 
 SCF   energy in the final basis set =     -393.0151042179
 Total energy in the final basis set =     -393.0151042179
 
 --------------------------------------------------------------
 
                    Orbital Energies (a.u.)
 --------------------------------------------------------------
 
 Alpha MOs
 -- Occupied --
-10.1204 -10.1204 -10.1202 -10.1202 -10.1201 -10.1201 -10.1200 -10.1200
-10.1198 -10.1198  -1.0104  -1.0075  -0.8725  -0.8718  -0.8687  -0.8681
 -0.7243  -0.7184  -0.7102  -0.7100  -0.6337  -0.6214  -0.6209  -0.6137
 -0.5563  -0.5547  -0.5419  -0.5384  -0.4618  -0.4617  -0.4602  -0.4575
 -0.4568  -0.4566  -0.4534  -0.4521  -0.4507  -0.4377  -0.4340  -0.4326
 -- Virtual --
  0.1157   0.1317   0.1381   0.1494   0.1523   0.1693   0.1750   0.1783
  0.1824   0.1949   0.2025   0.2044   0.2046   0.2075   0.2108   0.2380
  0.2385   0.2502   0.2527   0.2532   0.2650   0.2735   0.2756   0.2928
  0.2935   0.2945   0.3021   0.3111   0.3141   0.3232   0.3268   0.3421
  0.3514   0.3601   0.3632   0.3670   0.3828   0.3931   0.3996   0.4085
  0.4192   0.4623   0.4671   0.4720   0.4848   0.4935   0.4955   0.4983
  0.5095   0.5150   0.5164   0.5288   0.5327   0.5334   0.5341   0.5361
  0.5376   0.5438   0.5460   0.5501   0.5528   0.5585   0.5613   0.5639
  0.5676   0.5702   0.5811   0.5907   0.5947   0.6086   0.6103   0.6204
  0.6217   0.6325   0.6397   0.6439   0.6477   0.6620   0.6665   0.6893
  0.6927   0.7224   0.7261   0.7427   0.7496   0.7545   0.7797   0.7830
  0.8186   0.8283   0.8534   0.8560   0.8867   0.9105   0.9175   0.9221
  0.9426   0.9486   0.9601   0.9799   0.9812   0.9823   0.9888   0.9942
  1.0021   1.0029   1.0035   1.0263   1.0341   1.0439   1.0682   1.0764
  1.0829   1.0932   1.0958   1.1037   1.1176   1.1271   1.1420   1.1489
  1.1636   1.1638   1.1686   1.1728   1.1786   1.1837   1.1998   1.2042
  1.2085   1.2187   1.2211   1.2352   1.2365   1.2506   1.2540   1.2688
  1.2742   1.2779   1.2824   1.2895   1.3051   1.3191   1.3363   1.3443
  1.3470   1.3573   1.3650   1.3836   1.3925   1.3927   1.4044   1.4060
  1.4179   1.4205   1.4301   1.4335   1.4430   1.4478   1.4595   1.4712
  1.4735   1.4943   1.4964   1.5096   1.5200   1.5378   1.5434   1.5475
  1.5674   1.5764   1.5825   1.6001   1.6062   1.6129   1.6163   1.6181
  1.6381   1.6484   1.6512   1.6553   1.6639   1.6764   1.6768   1.6986
  1.7082   1.7087   1.7239   1.7240   1.7319   1.7497   1.7636   1.7642
  1.7798   1.7877   1.8178   1.8258   1.8495   1.8517   1.8580   1.8725
  1.8823   1.8918   1.8936   1.9164   1.9246   1.9378   1.9398   1.9731
  2.0349   2.0470   2.0925   2.1131   2.1630   2.1664   2.2236   2.2244
  2.2487   2.2577   2.2596   2.2616   2.2964   2.3175   2.3737   2.3793
  2.3999   2.4089   2.5073   2.5200   2.5287   2.5360   2.5902   2.5904
  2.5995   2.6044   2.6088   2.6125   2.6467   2.6505   2.6671   2.6791
  2.6923   2.6979   2.7237   2.7300   2.7357   2.7406   2.7535   2.7615
  2.7632   2.7693   2.7919   2.7921   2.8169   2.8189   2.8369   2.8501
  2.8532   2.8763   2.8821   2.8948   2.9001   2.9152   2.9241   2.9386
  2.9486   2.9605   2.9608   2.9688   2.9797   2.9974   3.0000   3.0091
  3.0164   3.0391   3.0445   3.0461   3.0673   3.0786   3.0917   3.1144
  3.1563   3.1570   3.1677   3.1842   3.1970   3.2010   3.2062   3.2119
  3.2221   3.2251   3.2443   3.2557   3.2679   3.2707   3.2813   3.2953
  3.2963   3.2992   3.3066   3.3108   3.3172   3.3242   3.3304   3.3356
  3.3376   3.3419   3.3515   3.3568   3.3572   3.3756   3.3767   3.3849
  3.3941   3.4037   3.4060   3.4110   3.4333   3.4390   3.4529   3.4699
  3.4827   3.4952   3.5094   3.5097   3.5444   3.5477   3.5627   3.5865
  3.5968   3.6013   3.6054   3.6061   3.6226   3.6294   3.6395   3.6483
  3.6765   3.6833   3.6885   3.7061   3.7132   3.7218   3.7427   3.7530
  3.7568   3.7589   3.7705   3.7790   3.7814   3.7906   3.8056   3.8097
  3.8236   3.8294   3.8309   3.8354   3.8407   3.8568   3.8646   3.8672
  3.8869   3.9040   3.9101   3.9206   3.9282   3.9395   3.9503   3.9666
  3.9709   3.9755   3.9942   4.0050   4.0184   4.0285   4.0378   4.0440
  4.0444   4.0557   4.0613   4.0773   4.0961   4.1007   4.1102   4.1123
  4.1365   4.1367   4.1535   4.1568   4.1604   4.1708   4.1834   4.2039
  4.2067   4.2136   4.2240   4.2269   4.2313   4.2390   4.2515   4.2584
  4.2796   4.2826   4.2982   4.3016   4.3142   4.3211   4.3267   4.3308
  4.3471   4.3502   4.3515   4.3577   4.3583   4.3775   4.3791   4.3868
  4.3897   4.4144   4.4318   4.4343   4.4392   4.4537   4.4620   4.4741
  4.4776   4.4939   4.5039   4.5115   4.5226   4.5257   4.5430   4.5537
  4.5643   4.5687   4.5746   4.5848   4.6304   4.6310   4.6392   4.6406
  4.6611   4.6665   4.6833   4.7009   4.7067   4.7108   4.7359   4.7461
  4.7495   4.7619   4.7790   4.8072   4.8197   4.8279   4.8384   4.8389
  4.8467   4.8746   4.8794   4.8854   4.8947   4.9283   4.9311   4.9380
  4.9514   4.9632   4.9690   4.9769   4.9922   4.9946   5.0242   5.0246
  5.0533   5.0622   5.0826   5.0876   5.0976   5.0999   5.1034   5.1171
  5.1207   5.1352   5.1388   5.1461   5.1648   5.1671   5.2020   5.2208
  5.2344   5.2407   5.2591   5.3123   5.3308   5.3310   5.3384   5.3412
  5.3646   5.3854   5.4190   5.4313   5.4892   5.4976   5.5136   5.5231
  5.5377   5.5404   5.5486   5.5622   5.5644   5.5761   5.5851   5.5984
  5.6358   5.6470   5.6536   5.6561   5.6933   5.6985   5.6999   5.7053
  5.7362   5.7459   5.7757   5.7784   5.8029   5.8129   5.8286   5.8301
  5.8476   5.8499   5.8681   5.8739   5.8835   5.8887   5.8985   5.9188
  5.9555   5.9661   6.0387   6.0430  23.0888  23.1125  23.4294  23.4592
 23.4794  23.4972  23.5142  23.5229  23.5433  23.5451
 --------------------------------------------------------------
 
          Ground-State Mulliken Net Atomic Charges

     Atom                 Charge (a.u.)
  ----------------------------------------
      1 C                    -0.185965
      2 H                     0.101190
      3 H                     0.081571
      4 C                    -0.196424
      5 H                     0.103918
      6 H                     0.083619
      7 C                    -0.168317
      8 H                     0.091872
      9 H                     0.077087
     10 C                    -0.162684
     11 H                     0.090192
     12 H                     0.086716
     13 C                    -0.180166
     14 H                     0.092177
     15 H                     0.085215
     16 C                    -0.168317
     17 H                     0.077087
     18 H                     0.091872
     19 C                    -0.196424
     20 H                     0.083619
     21 H                     0.103918
     22 C                    -0.185965
     23 H                     0.081571
     24 H                     0.101190
     25 C                    -0.180166
     26 H                     0.085215
     27 H                     0.092177
     28 C                    -0.162684
     29 H                     0.086716
     30 H                     0.090192
  ----------------------------------------
  Sum of atomic charges =     0.000000

 -----------------------------------------------------------------
                    Cartesian Multipole Moments
 -----------------------------------------------------------------
    Charge (ESU x 10^10)
                -0.0000
    Dipole Moment (Debye)
         X      -0.0000      Y      -0.0000      Z      -0.0268
       Tot       0.0268
    Quadrupole Moments (Debye-Ang)
        XX     -66.9185     XY      -0.2273     YY     -64.2853
        XZ      -0.0000     YZ       0.0000     ZZ     -66.9347
    Octopole Moments (Debye-Ang^2)
       XXX       0.0000    XXY       0.0000    XYY       0.0000
       YYY       0.0000    XXZ      -0.1890    XYZ       1.2256
       YYZ       4.2319    XZZ      -0.0000    YZZ      -0.0000
       ZZZ      -1.2856
    Hexadecapole Moments (Debye-Ang^3)
      XXXX    -492.1428   XXXY     -63.4373   XXYY    -400.4305
      XYYY     -71.4056   YYYY   -1913.7068   XXXZ       0.0000
      XXYZ       0.0000   XYYZ      -0.0000   YYYZ       0.0000
      XXZZ    -160.7013   XYZZ     -21.2468   YYZZ    -406.4321
      XZZZ      -0.0000   YZZZ      -0.0000   ZZZZ    -475.1749
 -----------------------------------------------------------------
 Total job time:  497.66s(wall), 498.20s(cpu) 
 Wed Oct  6 19:29:33 2021

        *************************************************************
        *                                                           *
        *  Thank you very much for using Q-Chem.  Have a nice day.  *
        *                                                           *
        *************************************************************


